# epsilon and Z* of atoms 1 5
  21.57042924    0.00000000    0.00000000    0.00000000   21.57042924    0.00000000    0.00000000    0.00000000   21.57042924 
   1.91550166    0.00000000    0.00000000    0.00000000    1.91550165    0.00000000    0.00000000    0.00000000    1.91550165 
  -1.91550166    0.00000000    0.00000000    0.00000000   -1.91550165    0.00000000    0.00000000    0.00000000   -1.91550165 
