64   
2    

1    
  0.0100000000000000   0.0000000000000000   0.0000000000000000
  -0.0702126300   -0.0000000000    0.0000000000
   0.0004194900   -0.0000000000    0.0000000000
   0.0002320000   -0.0000000000    0.0000000000
   0.0000506200   -0.0000000000    0.0000000000
   0.0002320000   -0.0000000000    0.0000000000
   0.0000506200   -0.0000000000    0.0000000000
  -0.0037148900   -0.0000000000    0.0000000000
   0.0002774600   -0.0000000000    0.0000000000
  -0.0038008700    0.0008078000    0.0008078000
   0.0002185100   -0.0001716900   -0.0001716900
  -0.0037892500    0.0008027000   -0.0008027000
   0.0002218600   -0.0001732300    0.0001732300
  -0.0037892500   -0.0008027000    0.0008027000
   0.0002218600    0.0001732300   -0.0001732300
  -0.0038008700   -0.0008078000   -0.0008078000
   0.0002185100    0.0001716900    0.0001716900
   0.0013112800   -0.0008010300    0.0012217300
   0.0012991500   -0.0008098700   -0.0012143100
   0.0003304000    0.0001716600   -0.0006428600
   0.0003278600    0.0001731600    0.0006442800
   0.0013112800    0.0008010300   -0.0012217300
   0.0012991500    0.0008098700    0.0012143100
   0.0003304000   -0.0001716600    0.0006428600
   0.0003278600   -0.0001731600   -0.0006442800
   0.0013112800    0.0012217300   -0.0008010300
   0.0012991500   -0.0012143100   -0.0008098700
   0.0013112800   -0.0012217300    0.0008010300
   0.0012991500    0.0012143100    0.0008098700
   0.0003304000   -0.0006428600    0.0001716600
   0.0003278600    0.0006442800    0.0001731600
   0.0003304000    0.0006428600   -0.0001716600
   0.0003278600   -0.0006442800   -0.0001731600
   0.0184966600    0.0137865300    0.0137865300
  -0.0002889900    0.0003041400    0.0003041400
  -0.0001406600    0.0000985500    0.0003041000
  -0.0002385300   -0.0002155200   -0.0003164800
  -0.0001406600    0.0003041000    0.0000985500
  -0.0002385300   -0.0003164800   -0.0002155200
   0.0012922100    0.0005428100    0.0005428100
  -0.0001893100    0.0001821400    0.0001821400
  -0.0002351000   -0.0002116200    0.0003122100
  -0.0001377200    0.0000958700   -0.0003070500
  -0.0002906200    0.0003042700   -0.0003042700
   0.0183308700    0.0134717000   -0.0134717000
  -0.0001908600    0.0001815800   -0.0001815800
   0.0012890600    0.0005423200   -0.0005423200
  -0.0002351000   -0.0003122100    0.0002116200
  -0.0001377200    0.0003070500   -0.0000958700
  -0.0002351000    0.0003122100   -0.0002116200
  -0.0001377200   -0.0003070500    0.0000958700
  -0.0001908600   -0.0001815800    0.0001815800
   0.0012890600   -0.0005423200    0.0005423200
  -0.0002906200   -0.0003042700    0.0003042700
   0.0183308700   -0.0134717000    0.0134717000
  -0.0002351000    0.0002116200   -0.0003122100
  -0.0001377200   -0.0000958700    0.0003070500
   0.0012922100   -0.0005428100   -0.0005428100
  -0.0001893100   -0.0001821400   -0.0001821400
  -0.0001406600   -0.0003041000   -0.0000985500
  -0.0002385300    0.0003164800    0.0002155200
  -0.0001406600   -0.0000985500   -0.0003041000
  -0.0002385300    0.0002155200    0.0003164800
   0.0184966600   -0.0137865300   -0.0137865300
  -0.0002889900   -0.0003041400   -0.0003041400

33   
  0.0100000000000000   0.0000000000000000   0.0000000000000000
   0.0183237900    0.0134622000    0.0134622000
  -0.0002917300    0.0000969500    0.0000969500
  -0.0001406900    0.0003042900    0.0003069900
  -0.0002359100   -0.0002129900    0.0005454400
  -0.0001406900    0.0003069900    0.0003042900
  -0.0002359100    0.0005454400   -0.0002129900
   0.0012849300   -0.0003144000   -0.0003144000
  -0.0001905700    0.0001815500    0.0001815500
   0.0183237900   -0.0134622000   -0.0134622000
  -0.0002917300   -0.0000969500   -0.0000969500
  -0.0001406900   -0.0003042900   -0.0003069900
  -0.0002359100    0.0002129900   -0.0005454400
  -0.0001406900   -0.0003069900   -0.0003042900
  -0.0002359100   -0.0005454400    0.0002129900
   0.0012849300    0.0003144000    0.0003144000
  -0.0001905700   -0.0001815500   -0.0001815500
   0.0185027400   -0.0137971500    0.0137971500
  -0.0002909100   -0.0000971900    0.0000971900
  -0.0001384800   -0.0003039900    0.0003034300
  -0.0002386500    0.0002151700    0.0005390500
  -0.0001384800   -0.0003034300    0.0003039900
  -0.0002386500   -0.0005390500   -0.0002151700
   0.0012953300    0.0003152400   -0.0003152400
  -0.0001901600   -0.0001821400    0.0001821400
   0.0185027400    0.0137971500   -0.0137971500
  -0.0002909100    0.0000971900   -0.0000971900
  -0.0001384800    0.0003039900   -0.0003034300
  -0.0002386500   -0.0002151700   -0.0005390500
  -0.0001384800    0.0003034300   -0.0003039900
  -0.0002386500    0.0005390500    0.0002151700
   0.0012953300   -0.0003152400    0.0003152400
  -0.0001901600    0.0001821400   -0.0001821400
  -0.0828949700   -0.0000000000   -0.0000000000
   0.0001040000   -0.0000000000   -0.0000000000
   0.0001583800   -0.0000000000   -0.0000000000
   0.0005708500   -0.0000000000   -0.0000000000
   0.0001583800   -0.0000000000   -0.0000000000
   0.0005708500   -0.0000000000   -0.0000000000
  -0.0013516000   -0.0000000000   -0.0000000000
   0.0001014900   -0.0000000000   -0.0000000000
   0.0015122300    0.0015480300   -0.0013221700
   0.0014950300   -0.0015264400   -0.0013201200
   0.0015122300   -0.0015480300    0.0013221700
   0.0014950300    0.0015264400    0.0013201200
   0.0001128700   -0.0002692500    0.0000391800
   0.0001140100    0.0002712500    0.0000391900
   0.0001128700    0.0002692500   -0.0000391800
   0.0001140100   -0.0002712500   -0.0000391900
   0.0015122300   -0.0013221700    0.0015480300
   0.0014950300   -0.0013201200   -0.0015264400
   0.0001128700    0.0000391800   -0.0002692500
   0.0001140100    0.0000391900    0.0002712500
   0.0015122300    0.0013221700   -0.0015480300
   0.0014950300    0.0013201200    0.0015264400
   0.0001128700   -0.0000391800    0.0002692500
   0.0001140100   -0.0000391900   -0.0002712500
  -0.0011293800    0.0013145000    0.0013145000
   0.0000749400   -0.0000384900   -0.0000384900
  -0.0011321500    0.0013276600   -0.0013276600
   0.0000736600   -0.0000398300    0.0000398300
  -0.0011321500   -0.0013276600    0.0013276600
   0.0000736600    0.0000398300   -0.0000398300
  -0.0011293800   -0.0013145000   -0.0013145000
   0.0000749400    0.0000384900    0.0000384900
