64   
2    

1    
  0.0100000000000000   0.0000000000000000   0.0000000000000000
  -0.0282801500   -0.0000000000    0.0000000000
   0.0137210800   -0.0000000000    0.0000000000
   0.0000954900   -0.0000000000    0.0000000000
   0.0010672400   -0.0000000000    0.0000000000
   0.0000954900   -0.0000000000    0.0000000000
   0.0010672400   -0.0000000000    0.0000000000
  -0.0003679800   -0.0000000000    0.0000000000
   0.0003884400   -0.0000000000    0.0000000000
   0.0011701600    0.0057621900    0.0000000000
   0.0011728300   -0.0057084300    0.0000000000
   0.0011701600   -0.0057621900    0.0000000000
   0.0011728300    0.0057084300    0.0000000000
  -0.0000110200    0.0002963800    0.0000000000
  -0.0000045400   -0.0002941100    0.0000000000
  -0.0000110200   -0.0002963800    0.0000000000
  -0.0000045400    0.0002941100    0.0000000000
   0.0011701600   -0.0000000000    0.0057621900
   0.0011728300   -0.0000000000   -0.0057084300
  -0.0000110200   -0.0000000000    0.0002963800
  -0.0000045400   -0.0000000000   -0.0002941100
   0.0011701600   -0.0000000000   -0.0057621900
   0.0011728300   -0.0000000000    0.0057084300
  -0.0000110200   -0.0000000000   -0.0002963800
  -0.0000045400   -0.0000000000    0.0002941100
  -0.0010712300   -0.0000088100   -0.0000088100
   0.0009275400    0.0000008700    0.0000008700
  -0.0010712300    0.0000088100   -0.0000088100
   0.0009275400   -0.0000008700    0.0000008700
  -0.0010712300   -0.0000088100    0.0000088100
   0.0009275400    0.0000008700   -0.0000008700
  -0.0010712300    0.0000088100    0.0000088100
   0.0009275400   -0.0000008700   -0.0000008700
   0.0024827700   -0.0000000000   -0.0000020900
  -0.0013189000   -0.0000000000    0.0000028400
   0.0003049000   -0.0000000000    0.0000031300
  -0.0003909100   -0.0000000000   -0.0000003300
   0.0024827700   -0.0000000000    0.0000020900
  -0.0013189000   -0.0000000000   -0.0000028400
   0.0003049000   -0.0000000000   -0.0000031300
  -0.0003909100   -0.0000000000    0.0000003300
   0.0009873100   -0.0000000000    0.0000000000
   0.0003363000   -0.0000000000    0.0000000000
  -0.0003117400   -0.0000000000    0.0000000000
  -0.0003195700   -0.0000000000    0.0000000000
  -0.0003117400   -0.0000000000    0.0000000000
  -0.0003195700   -0.0000000000    0.0000000000
  -0.0000097100   -0.0000000000    0.0000000000
  -0.0000129700   -0.0000000000    0.0000000000
   0.0024827700   -0.0000020900    0.0000000000
  -0.0013189000    0.0000028400    0.0000000000
   0.0024827700    0.0000020900    0.0000000000
  -0.0013189000   -0.0000028400    0.0000000000
   0.0003049000    0.0000031300    0.0000000000
  -0.0003909100   -0.0000003300    0.0000000000
   0.0003049000   -0.0000031300    0.0000000000
  -0.0003909100    0.0000003300    0.0000000000
  -0.0001063800   -0.0005049900   -0.0005049900
  -0.0001115200    0.0005008300    0.0005008300
  -0.0001063800    0.0005049900   -0.0005049900
  -0.0001115200   -0.0005008300    0.0005008300
  -0.0001063800   -0.0005049900    0.0005049900
  -0.0001115200    0.0005008300   -0.0005008300
  -0.0001063800    0.0005049900    0.0005049900
  -0.0001115200   -0.0005008300   -0.0005008300

33   
  0.0100000000000000   0.0000000000000000   0.0000000000000000
   0.0024831800   -0.0000000000   -0.0000086000
  -0.0013177800   -0.0000000000    0.0000093400
   0.0003056700   -0.0000000000   -0.0000069600
  -0.0003889400   -0.0000000000    0.0000012000
   0.0024831800   -0.0000000000    0.0000086000
  -0.0013177800   -0.0000000000   -0.0000093400
   0.0003056700   -0.0000000000    0.0000069600
  -0.0003889400   -0.0000000000   -0.0000012000
  -0.0001018500   -0.0005060200    0.0005060200
  -0.0001143800    0.0004996800   -0.0004996800
  -0.0001018500    0.0005060200    0.0005060200
  -0.0001143800   -0.0004996800   -0.0004996800
  -0.0001018500   -0.0005060200   -0.0005060200
  -0.0001143800    0.0004996800    0.0004996800
  -0.0001018500    0.0005060200   -0.0005060200
  -0.0001143800   -0.0004996800    0.0004996800
   0.0009625900   -0.0000000000   -0.0000000000
   0.0003683200   -0.0000000000   -0.0000000000
  -0.0003061300   -0.0000000000   -0.0000000000
  -0.0003235100   -0.0000000000   -0.0000000000
  -0.0003061300   -0.0000000000   -0.0000000000
  -0.0003235100   -0.0000000000   -0.0000000000
  -0.0000077700   -0.0000000000   -0.0000000000
  -0.0000135900   -0.0000000000   -0.0000000000
   0.0024831800    0.0000086000   -0.0000000000
  -0.0013177800   -0.0000093400   -0.0000000000
   0.0024831800   -0.0000086000   -0.0000000000
  -0.0013177800    0.0000093400   -0.0000000000
   0.0003056700    0.0000069600   -0.0000000000
  -0.0003889400   -0.0000012000   -0.0000000000
   0.0003056700   -0.0000069600   -0.0000000000
  -0.0003889400    0.0000012000   -0.0000000000
  -0.0297382500   -0.0000000000   -0.0000000000
   0.0178487200   -0.0000000000   -0.0000000000
   0.0006135700   -0.0000000000   -0.0000000000
   0.0004714400   -0.0000000000   -0.0000000000
   0.0006135700   -0.0000000000   -0.0000000000
   0.0004714400   -0.0000000000   -0.0000000000
  -0.0001241900   -0.0000000000   -0.0000000000
   0.0002096000   -0.0000000000   -0.0000000000
   0.0006212800   -0.0000000000   -0.0019672300
   0.0006227700   -0.0000000000    0.0019316800
   0.0000667900   -0.0000000000   -0.0002133500
   0.0000723600   -0.0000000000    0.0002106200
   0.0006212800   -0.0000000000    0.0019672300
   0.0006227700   -0.0000000000   -0.0019316800
   0.0000667900   -0.0000000000    0.0002133500
   0.0000723600   -0.0000000000   -0.0002106200
  -0.0002146200   -0.0000054300    0.0000054300
   0.0003614700    0.0000014000   -0.0000014000
  -0.0002146200    0.0000054300    0.0000054300
   0.0003614700   -0.0000014000   -0.0000014000
  -0.0002146200   -0.0000054300   -0.0000054300
   0.0003614700    0.0000014000    0.0000014000
  -0.0002146200    0.0000054300   -0.0000054300
   0.0003614700   -0.0000014000    0.0000014000
   0.0006212800    0.0019672300   -0.0000000000
   0.0006227700   -0.0019316800   -0.0000000000
   0.0006212800   -0.0019672300   -0.0000000000
   0.0006227700    0.0019316800   -0.0000000000
   0.0000667900    0.0002133500   -0.0000000000
   0.0000723600   -0.0002106200   -0.0000000000
   0.0000667900   -0.0002133500   -0.0000000000
   0.0000723600    0.0002106200   -0.0000000000
