32   
4    

1    
  0.0052681450692087  -0.0000000000004523   0.0084998027935813
  -0.0502217600    0.0005723200   -0.0816208100
   0.0135087600   -0.0027262200   -0.0051708300
   0.0031531000   -0.0059449100   -0.0036710200
  -0.0016642400    0.0087926300   -0.0066430900
   0.0000650300    0.0000379400    0.0091549100
  -0.0002220900    0.0006652100    0.0058237300
  -0.0006187900   -0.0001917100    0.0054878100
   0.0004665700   -0.0003605000    0.0061596000
   0.0099367800   -0.0056600500    0.0113875900
  -0.0088350600   -0.0052823700    0.0063593000
   0.0002237800    0.0107908600    0.0088672300
  -0.0003376200   -0.0000447300    0.0039937200
  -0.0034644100    0.0020891200    0.0030690200
   0.0045159500    0.0024197900    0.0146099100
   0.0002393500   -0.0046578100    0.0088501500
  -0.0003407500   -0.0000470100    0.0039980700
   0.0020915600    0.0000274200    0.0393497100
  -0.0016391800    0.0001788200    0.0004610500
  -0.0002316600    0.0008310400   -0.0005196100
   0.0000521100   -0.0009579400    0.0014491200
   0.0013548500    0.0000145100   -0.0081633500
  -0.0014894200    0.0002413300   -0.0052978100
  -0.0001696100    0.0007796800   -0.0041596000
   0.0002219600   -0.0009703600   -0.0064361600
  -0.0006954500    0.0002287400   -0.0069820200
   0.0008930500    0.0006439400   -0.0073560800
  -0.0002607400   -0.0009396400   -0.0071680100
   0.0002960100   -0.0000228700   -0.0045298200
   0.0055702500   -0.0030045300   -0.0000622300
   0.0272557800    0.0154100000    0.0128327400
   0.0004672300   -0.0128870400    0.0065350800
  -0.0001213400   -0.0000256800   -0.0006082700

1    
 -0.0052681450692087   0.0000000000004523  -0.0084998027935813
   0.0517478400    0.0006207700    0.0838507900
  -0.0136896600    0.0027947000    0.0104142900
  -0.0032834500    0.0060334700    0.0089155200
   0.0014963400   -0.0087410600    0.0118909800
  -0.0002087500    0.0000391400   -0.0038926100
   0.0000769200   -0.0005873000   -0.0005370900
   0.0004734100    0.0002664800   -0.0002006900
  -0.0006102100    0.0004345800   -0.0008736500
  -0.0097176400    0.0055079400   -0.0060054300
   0.0089670500    0.0051757700   -0.0010754300
  -0.0000874800   -0.0108344500   -0.0035464600
   0.0004940200   -0.0000446600    0.0012875200
   0.0036421700   -0.0021934100    0.0022650500
  -0.0044434300   -0.0025732900   -0.0094120200
  -0.0000715100    0.0046179500   -0.0035623000
   0.0004899200   -0.0000466900    0.0012931400
  -0.0024040100    0.0000280000   -0.0420940300
   0.0015635800   -0.0001491100   -0.0056833700
   0.0001675700   -0.0007879500   -0.0046929800
  -0.0001173000    0.0009889500   -0.0066662800
  -0.0014305000    0.0000163000    0.0029446800
   0.0014388200   -0.0002058100    0.0000531400
   0.0001068800   -0.0007518800   -0.0010851300
  -0.0002785200    0.0010080000    0.0011920600
   0.0007703100   -0.0002732600    0.0017563400
  -0.0008194600   -0.0006880300    0.0021245600
   0.0003346100    0.0008949900    0.0019413200
  -0.0002230100   -0.0000232900   -0.0007039100
  -0.0057241800    0.0030910900   -0.0052305200
  -0.0286042800   -0.0164214400   -0.0183804000
  -0.0002681100    0.0128283900   -0.0116550300
   0.0002121000   -0.0000248900   -0.0046320600

17   
  0.0052681450692087  -0.0000000000004523   0.0084998027935813
   0.0023040400    0.0000380300    0.0420164100
  -0.0016531900    0.0018777400    0.0056927200
  -0.0017151600    0.0000070100    0.0055993300
   0.0014663600   -0.0017582200    0.0057728600
   0.0013378300    0.0000417800   -0.0029441500
  -0.0015435100   -0.0020823000   -0.0000477900
   0.0018288600    0.0019897900   -0.0001678300
  -0.0018493400    0.0002193800    0.0000739300
   0.0281254000   -0.0160838400    0.0187736300
   0.0064578600    0.0034107300    0.0048273000
   0.0004103400    0.0121113900    0.0116598300
  -0.0000893100   -0.0000508100    0.0046453200
  -0.0001551300   -0.0000782700   -0.0014443200
   0.0004406000    0.0003350900   -0.0024137900
  -0.0002152500   -0.0003876800   -0.0019305200
   0.0003405400   -0.0000436100    0.0007118200
  -0.0586584200    0.0004719000   -0.0954676800
   0.0125301000   -0.0002587500   -0.0063385100
   0.0032219600   -0.0053583800   -0.0061771700
   0.0027153500    0.0056779200   -0.0064892800
  -0.0003455900    0.0000216300    0.0012006600
   0.0004143100   -0.0001785800    0.0012279200
   0.0001016600   -0.0001610100    0.0013414300
  -0.0002451900    0.0003996000    0.0011154600
   0.0046190600   -0.0028653900    0.0070831800
  -0.0018081900   -0.0008868600    0.0008957100
  -0.0003082000    0.0036885000    0.0039811300
  -0.0000881200   -0.0000185100   -0.0025270000
  -0.0035259300    0.0018475200    0.0019932400
   0.0062654400    0.0037633300    0.0058960800
  -0.0002897900   -0.0056722300    0.0039519700
  -0.0000893800   -0.0000169000   -0.0025119000

17   
 -0.0052681450692087   0.0000000000004523  -0.0084998027935813
  -0.0021967800    0.0000374500   -0.0394050600
   0.0015380300   -0.0017977200   -0.0004289600
   0.0015717700    0.0000613700   -0.0003459200
  -0.0016121500    0.0018605900   -0.0005252700
  -0.0014575800    0.0000408500    0.0081909600
   0.0013749000    0.0021586900    0.0053298400
  -0.0019679200   -0.0018879600    0.0054510000
   0.0017003900   -0.0001457300    0.0052109900
  -0.0264813700    0.0150162000   -0.0131905300
  -0.0061083200   -0.0034137600    0.0004701500
  -0.0003355000   -0.0121525000   -0.0065003700
   0.0002339800   -0.0000515100    0.0006508500
   0.0003110000   -0.0000112600    0.0067058900
  -0.0002944300   -0.0004265700    0.0077068400
   0.0003679600    0.0003052100    0.0072049200
  -0.0001881100   -0.0000442200    0.0045636400
   0.0565240600    0.0004770600    0.0921887900
  -0.0125731300    0.0002970000    0.0011007500
  -0.0032427300    0.0054015100    0.0009581600
  -0.0027713900   -0.0056383200    0.0012497000
   0.0002842100    0.0000204100   -0.0064374600
  -0.0004764400    0.0002232400   -0.0064699200
  -0.0001655100    0.0001985200   -0.0065721500
   0.0001855600   -0.0003635200   -0.0063667300
  -0.0044755800    0.0027734000   -0.0121893500
   0.0018651400    0.0008461000   -0.0061864200
   0.0003638900   -0.0036843200   -0.0091951800
   0.0001633300   -0.0000195000   -0.0027243500
   0.0035959500   -0.0018771300   -0.0072389900
  -0.0062775100   -0.0038656500   -0.0112505700
   0.0003809300    0.0056800700   -0.0092367100
   0.0001633700   -0.0000180000   -0.0027185200
