phonopy:
  version: 1.13.2
  configuration:

supercell_matrix:
- [   2,   0,   0 ]
- [   0,   2,   0 ]
- [   0,   0,   2 ]

space_group:
  type: "Fm-3m"
  number: 225
  Hall_symbol: "-F 4 2 3"

primitive_cell:
  lattice:
  - [     7.848750170396335,     0.000000012535134,     0.000000013274547 ] # a
  - [     0.000000013274547,     7.848750170396335,     0.000000012535134 ] # b
  - [     0.000000012535134,     0.000000013274547,     7.848750170396335 ] # c
  points:
  - symbol: Cs # 1
    coordinates: [  0.000000000000000,  0.000000000000000,  0.000000000000000 ]
    mass: 132.905452
  - symbol: Cs # 2
    coordinates: [  0.500000000000000,  0.500000000000000,  0.000000000000000 ]
    mass: 132.905452
  - symbol: Cs # 3
    coordinates: [  0.500000000000000,  0.000000000000000,  0.500000000000000 ]
    mass: 132.905452
  - symbol: Cs # 4
    coordinates: [  0.000000000000000,  0.500000000000000,  0.500000000000000 ]
    mass: 132.905452
  - symbol: I  # 5
    coordinates: [  0.000000000000000,  0.000000000000000,  0.500000000000000 ]
    mass: 126.904470
  - symbol: I  # 6
    coordinates: [  0.500000000000000,  0.000000000000000,  0.000000000000000 ]
    mass: 126.904470
  - symbol: I  # 7
    coordinates: [  0.000000000000000,  0.500000000000000,  0.000000000000000 ]
    mass: 126.904470
  - symbol: I  # 8
    coordinates: [  0.500000000000000,  0.500000000000000,  0.500000000000000 ]
    mass: 126.904470
  reciprocal_lattice: # without 2pi
  - [     0.127408820294952,    -0.000000000215486,    -0.000000000203483 ] # a*
  - [    -0.000000000203483,     0.127408820294952,    -0.000000000215486 ] # b*
  - [    -0.000000000215486,    -0.000000000203483,     0.127408820294952 ] # c*

unit_cell:
  lattice:
  - [     7.848750170396335,     0.000000012535134,     0.000000013274547 ] # a
  - [     0.000000013274547,     7.848750170396335,     0.000000012535134 ] # b
  - [     0.000000012535134,     0.000000013274547,     7.848750170396335 ] # c
  points:
  - symbol: Cs # 1
    coordinates: [ -0.000000000000000,  0.000000000000000,  0.000000000000000 ]
    mass: 132.905452
    reduced_to: 1
  - symbol: Cs # 2
    coordinates: [  0.500000000000000,  0.500000000000000,  0.000000000000000 ]
    mass: 132.905452
    reduced_to: 2
  - symbol: Cs # 3
    coordinates: [  0.500000000000000, -0.000000000000000,  0.500000000000000 ]
    mass: 132.905452
    reduced_to: 3
  - symbol: Cs # 4
    coordinates: [  0.000000000000000,  0.500000000000000,  0.500000000000000 ]
    mass: 132.905452
    reduced_to: 4
  - symbol: I  # 5
    coordinates: [ -0.000000000000000, -0.000000000000000,  0.500000000000000 ]
    mass: 126.904470
    reduced_to: 5
  - symbol: I  # 6
    coordinates: [  0.500000000000000, -0.000000000000000,  0.000000000000000 ]
    mass: 126.904470
    reduced_to: 6
  - symbol: I  # 7
    coordinates: [ -0.000000000000000,  0.500000000000000,  0.000000000000000 ]
    mass: 126.904470
    reduced_to: 7
  - symbol: I  # 8
    coordinates: [  0.500000000000000,  0.500000000000000,  0.500000000000000 ]
    mass: 126.904470
    reduced_to: 8

supercell:
  lattice:
  - [    15.697500340792670,     0.000000025070267,     0.000000026549094 ] # a
  - [     0.000000026549094,    15.697500340792670,     0.000000025070267 ] # b
  - [     0.000000025070267,     0.000000026549094,    15.697500340792670 ] # c
  points:
  - symbol: Cs # 1
    coordinates: [  0.000000000000000,  0.000000000000000,  0.000000000000000 ]
    mass: 132.905452
    reduced_to: 1
  - symbol: Cs # 2
    coordinates: [  0.500000000000000,  0.000000000000000,  0.000000000000000 ]
    mass: 132.905452
    reduced_to: 1
  - symbol: Cs # 3
    coordinates: [  0.000000000000000,  0.500000000000000,  0.000000000000000 ]
    mass: 132.905452
    reduced_to: 1
  - symbol: Cs # 4
    coordinates: [  0.500000000000000,  0.500000000000000,  0.000000000000000 ]
    mass: 132.905452
    reduced_to: 1
  - symbol: Cs # 5
    coordinates: [  0.000000000000000,  0.000000000000000,  0.500000000000000 ]
    mass: 132.905452
    reduced_to: 1
  - symbol: Cs # 6
    coordinates: [  0.500000000000000,  0.000000000000000,  0.500000000000000 ]
    mass: 132.905452
    reduced_to: 1
  - symbol: Cs # 7
    coordinates: [  0.000000000000000,  0.500000000000000,  0.500000000000000 ]
    mass: 132.905452
    reduced_to: 1
  - symbol: Cs # 8
    coordinates: [  0.500000000000000,  0.500000000000000,  0.500000000000000 ]
    mass: 132.905452
    reduced_to: 1
  - symbol: Cs # 9
    coordinates: [  0.250000000000000,  0.250000000000000,  0.000000000000000 ]
    mass: 132.905452
    reduced_to: 9
  - symbol: Cs # 10
    coordinates: [  0.750000000000000,  0.250000000000000,  0.000000000000000 ]
    mass: 132.905452
    reduced_to: 9
  - symbol: Cs # 11
    coordinates: [  0.250000000000000,  0.750000000000000,  0.000000000000000 ]
    mass: 132.905452
    reduced_to: 9
  - symbol: Cs # 12
    coordinates: [  0.750000000000000,  0.750000000000000,  0.000000000000000 ]
    mass: 132.905452
    reduced_to: 9
  - symbol: Cs # 13
    coordinates: [  0.250000000000000,  0.250000000000000,  0.500000000000000 ]
    mass: 132.905452
    reduced_to: 9
  - symbol: Cs # 14
    coordinates: [  0.750000000000000,  0.250000000000000,  0.500000000000000 ]
    mass: 132.905452
    reduced_to: 9
  - symbol: Cs # 15
    coordinates: [  0.250000000000000,  0.750000000000000,  0.500000000000000 ]
    mass: 132.905452
    reduced_to: 9
  - symbol: Cs # 16
    coordinates: [  0.750000000000000,  0.750000000000000,  0.500000000000000 ]
    mass: 132.905452
    reduced_to: 9
  - symbol: Cs # 17
    coordinates: [  0.250000000000000,  0.000000000000000,  0.250000000000000 ]
    mass: 132.905452
    reduced_to: 17
  - symbol: Cs # 18
    coordinates: [  0.750000000000000,  0.000000000000000,  0.250000000000000 ]
    mass: 132.905452
    reduced_to: 17
  - symbol: Cs # 19
    coordinates: [  0.250000000000000,  0.500000000000000,  0.250000000000000 ]
    mass: 132.905452
    reduced_to: 17
  - symbol: Cs # 20
    coordinates: [  0.750000000000000,  0.500000000000000,  0.250000000000000 ]
    mass: 132.905452
    reduced_to: 17
  - symbol: Cs # 21
    coordinates: [  0.250000000000000,  0.000000000000000,  0.750000000000000 ]
    mass: 132.905452
    reduced_to: 17
  - symbol: Cs # 22
    coordinates: [  0.750000000000000,  0.000000000000000,  0.750000000000000 ]
    mass: 132.905452
    reduced_to: 17
  - symbol: Cs # 23
    coordinates: [  0.250000000000000,  0.500000000000000,  0.750000000000000 ]
    mass: 132.905452
    reduced_to: 17
  - symbol: Cs # 24
    coordinates: [  0.750000000000000,  0.500000000000000,  0.750000000000000 ]
    mass: 132.905452
    reduced_to: 17
  - symbol: Cs # 25
    coordinates: [  0.000000000000000,  0.250000000000000,  0.250000000000000 ]
    mass: 132.905452
    reduced_to: 25
  - symbol: Cs # 26
    coordinates: [  0.500000000000000,  0.250000000000000,  0.250000000000000 ]
    mass: 132.905452
    reduced_to: 25
  - symbol: Cs # 27
    coordinates: [  0.000000000000000,  0.750000000000000,  0.250000000000000 ]
    mass: 132.905452
    reduced_to: 25
  - symbol: Cs # 28
    coordinates: [  0.500000000000000,  0.750000000000000,  0.250000000000000 ]
    mass: 132.905452
    reduced_to: 25
  - symbol: Cs # 29
    coordinates: [  0.000000000000000,  0.250000000000000,  0.750000000000000 ]
    mass: 132.905452
    reduced_to: 25
  - symbol: Cs # 30
    coordinates: [  0.500000000000000,  0.250000000000000,  0.750000000000000 ]
    mass: 132.905452
    reduced_to: 25
  - symbol: Cs # 31
    coordinates: [  0.000000000000000,  0.750000000000000,  0.750000000000000 ]
    mass: 132.905452
    reduced_to: 25
  - symbol: Cs # 32
    coordinates: [  0.500000000000000,  0.750000000000000,  0.750000000000000 ]
    mass: 132.905452
    reduced_to: 25
  - symbol: I  # 33
    coordinates: [  0.000000000000000,  0.000000000000000,  0.250000000000000 ]
    mass: 126.904470
    reduced_to: 33
  - symbol: I  # 34
    coordinates: [  0.500000000000000,  0.000000000000000,  0.250000000000000 ]
    mass: 126.904470
    reduced_to: 33
  - symbol: I  # 35
    coordinates: [  0.000000000000000,  0.500000000000000,  0.250000000000000 ]
    mass: 126.904470
    reduced_to: 33
  - symbol: I  # 36
    coordinates: [  0.500000000000000,  0.500000000000000,  0.250000000000000 ]
    mass: 126.904470
    reduced_to: 33
  - symbol: I  # 37
    coordinates: [  0.000000000000000,  0.000000000000000,  0.750000000000000 ]
    mass: 126.904470
    reduced_to: 33
  - symbol: I  # 38
    coordinates: [  0.500000000000000,  0.000000000000000,  0.750000000000000 ]
    mass: 126.904470
    reduced_to: 33
  - symbol: I  # 39
    coordinates: [  0.000000000000000,  0.500000000000000,  0.750000000000000 ]
    mass: 126.904470
    reduced_to: 33
  - symbol: I  # 40
    coordinates: [  0.500000000000000,  0.500000000000000,  0.750000000000000 ]
    mass: 126.904470
    reduced_to: 33
  - symbol: I  # 41
    coordinates: [  0.250000000000000,  0.000000000000000,  0.000000000000000 ]
    mass: 126.904470
    reduced_to: 41
  - symbol: I  # 42
    coordinates: [  0.750000000000000,  0.000000000000000,  0.000000000000000 ]
    mass: 126.904470
    reduced_to: 41
  - symbol: I  # 43
    coordinates: [  0.250000000000000,  0.500000000000000,  0.000000000000000 ]
    mass: 126.904470
    reduced_to: 41
  - symbol: I  # 44
    coordinates: [  0.750000000000000,  0.500000000000000,  0.000000000000000 ]
    mass: 126.904470
    reduced_to: 41
  - symbol: I  # 45
    coordinates: [  0.250000000000000,  0.000000000000000,  0.500000000000000 ]
    mass: 126.904470
    reduced_to: 41
  - symbol: I  # 46
    coordinates: [  0.750000000000000,  0.000000000000000,  0.500000000000000 ]
    mass: 126.904470
    reduced_to: 41
  - symbol: I  # 47
    coordinates: [  0.250000000000000,  0.500000000000000,  0.500000000000000 ]
    mass: 126.904470
    reduced_to: 41
  - symbol: I  # 48
    coordinates: [  0.750000000000000,  0.500000000000000,  0.500000000000000 ]
    mass: 126.904470
    reduced_to: 41
  - symbol: I  # 49
    coordinates: [  0.000000000000000,  0.250000000000000,  0.000000000000000 ]
    mass: 126.904470
    reduced_to: 49
  - symbol: I  # 50
    coordinates: [  0.500000000000000,  0.250000000000000,  0.000000000000000 ]
    mass: 126.904470
    reduced_to: 49
  - symbol: I  # 51
    coordinates: [  0.000000000000000,  0.750000000000000,  0.000000000000000 ]
    mass: 126.904470
    reduced_to: 49
  - symbol: I  # 52
    coordinates: [  0.500000000000000,  0.750000000000000,  0.000000000000000 ]
    mass: 126.904470
    reduced_to: 49
  - symbol: I  # 53
    coordinates: [  0.000000000000000,  0.250000000000000,  0.500000000000000 ]
    mass: 126.904470
    reduced_to: 49
  - symbol: I  # 54
    coordinates: [  0.500000000000000,  0.250000000000000,  0.500000000000000 ]
    mass: 126.904470
    reduced_to: 49
  - symbol: I  # 55
    coordinates: [  0.000000000000000,  0.750000000000000,  0.500000000000000 ]
    mass: 126.904470
    reduced_to: 49
  - symbol: I  # 56
    coordinates: [  0.500000000000000,  0.750000000000000,  0.500000000000000 ]
    mass: 126.904470
    reduced_to: 49
  - symbol: I  # 57
    coordinates: [  0.250000000000000,  0.250000000000000,  0.250000000000000 ]
    mass: 126.904470
    reduced_to: 57
  - symbol: I  # 58
    coordinates: [  0.750000000000000,  0.250000000000000,  0.250000000000000 ]
    mass: 126.904470
    reduced_to: 57
  - symbol: I  # 59
    coordinates: [  0.250000000000000,  0.750000000000000,  0.250000000000000 ]
    mass: 126.904470
    reduced_to: 57
  - symbol: I  # 60
    coordinates: [  0.750000000000000,  0.750000000000000,  0.250000000000000 ]
    mass: 126.904470
    reduced_to: 57
  - symbol: I  # 61
    coordinates: [  0.250000000000000,  0.250000000000000,  0.750000000000000 ]
    mass: 126.904470
    reduced_to: 57
  - symbol: I  # 62
    coordinates: [  0.750000000000000,  0.250000000000000,  0.750000000000000 ]
    mass: 126.904470
    reduced_to: 57
  - symbol: I  # 63
    coordinates: [  0.250000000000000,  0.750000000000000,  0.750000000000000 ]
    mass: 126.904470
    reduced_to: 57
  - symbol: I  # 64
    coordinates: [  0.750000000000000,  0.750000000000000,  0.750000000000000 ]
    mass: 126.904470
    reduced_to: 57
