243  
9    

1    
 -0.0049999999317785   0.0086602540772321   0.0000000000000000
   0.2225898000   -0.4121712500    0.0126055900
  -0.0032497000   -0.0039636200    0.0001934300
  -0.0032542600   -0.0039845900   -0.0004737800
  -0.0070459500    0.0113153700    0.0067544700
   0.0057882700    0.0038905800   -0.0009983400
  -0.0003915500    0.0018894100    0.0008103700
  -0.0070107900    0.0112815800   -0.0042623300
   0.0001260900    0.0021883900   -0.0001796700
   0.0057976600    0.0039098600    0.0024055600
   0.0023857600   -0.0035486700   -0.0005403600
   0.0007167000   -0.0012728100   -0.0001052200
   0.0009740700   -0.0014252800   -0.0002459400
  -0.0004092500    0.0013153400    0.0014113000
   0.0011190200    0.0004323100    0.0007726000
   0.0002321000    0.0008651200    0.0002178700
  -0.0004608700    0.0017639400   -0.0010248000
   0.0004470800    0.0008389200   -0.0000157300
   0.0010791800    0.0008758200   -0.0011190800
   0.0007358600   -0.0045012000    0.0001990300
  -0.0006173500   -0.0023404500    0.0012267300
  -0.0008704000   -0.0021943800   -0.0020289200
   0.0009633800    0.0025833100   -0.0028872900
   0.0025079700    0.0016955900   -0.0011368600
   0.0003894700    0.0008055500    0.0002318500
   0.0008457700    0.0020437800    0.0025679500
   0.0005977600    0.0010778600   -0.0001968400
   0.0023727100    0.0011610500    0.0015842800
   0.0101826400    0.0093724700    0.0119158300
  -0.0011020000   -0.0005606100   -0.0011298900
  -0.0076773400    0.0001013200    0.0053926900
   0.0002069200    0.0052467000    0.0019144200
   0.0014324400    0.0033821000   -0.0002821700
  -0.0011023600    0.0046515700   -0.0018590200
  -0.0050203500    0.0008792700   -0.0034380000
   0.0002074800   -0.0004972400    0.0015037200
   0.0100817900    0.0204941100   -0.0190699100
   0.0000177800   -0.0002379500   -0.0001504900
  -0.0006535500    0.0003849800   -0.0002419400
  -0.0007537800   -0.0000108900   -0.0000870600
  -0.0003837500    0.0014252100   -0.0000039100
   0.0002619300    0.0013184400   -0.0003226400
  -0.0006537700    0.0014770200   -0.0003641200
  -0.0009274200    0.0003083900   -0.0001487200
  -0.0003831000    0.0004867800   -0.0000642200
   0.0000179500    0.0000804300   -0.0004454900
   0.0114521800   -0.0076513500   -0.0091401400
  -0.0016616600    0.0000583200   -0.0007875900
  -0.0114215000    0.0010378700   -0.0068708200
  -0.0008238600    0.0036965000   -0.0006624100
   0.0014217300    0.0017349400   -0.0001555100
  -0.0016628100    0.0032068300    0.0003205700
  -0.0076536000    0.0023270000    0.0069915900
  -0.0008231000    0.0000822500    0.0008993900
   0.0114316000   -0.0022660900    0.0072229600
  -0.0133848700    0.0456346100   -0.0437443600
   0.0017021700   -0.0046488500    0.0014133000
  -0.0046923000   -0.0003241800    0.0006285300
  -0.0036927700    0.0063638100   -0.0006122800
   0.0009892800    0.0022366600   -0.0005365100
   0.0002755900    0.0025470600    0.0007735100
  -0.0227838700    0.0399935100    0.0317585600
  -0.0035317900   -0.0003723100   -0.0007907200
   0.0037018600   -0.0056892800   -0.0002480400
   0.0008664700   -0.0003962300    0.0073723100
   0.0017534300   -0.0009975200    0.0017284500
  -0.0028420800   -0.0008551700    0.0014808400
  -0.0022605000    0.0011590000    0.0000389800
   0.0007331400    0.0005917200    0.0006835100
   0.0002880600    0.0009538900   -0.0005189500
  -0.0038045800   -0.0030690200   -0.0079246000
  -0.0019922500   -0.0009801700   -0.0014062200
   0.0047732900   -0.0013824600   -0.0023480600
   0.0001488300   -0.0015151500   -0.0009956600
   0.0001470200   -0.0016056700    0.0000412900
  -0.0010913400   -0.0003202200   -0.0004926300
  -0.0013213900    0.0011989800   -0.0003631900
  -0.0000555400    0.0001223300   -0.0004461400
  -0.0002798200    0.0001504900    0.0001674500
  -0.0001286000   -0.0016712900    0.0008498700
  -0.0010015800   -0.0004236200    0.0000968800
   0.0003371800   -0.0017455000   -0.0001211200
  -0.1344551800    0.1541756000   -0.0853648500
  -0.0043467200    0.0021827100    0.0011543200
  -0.0035389000   -0.0004851700    0.0020950600
  -0.0016136300   -0.0063500800    0.0035220600
  -0.0057167700   -0.0026358100    0.0025738300
  -0.0045322600   -0.0022258600    0.0023697700
   0.0020116300   -0.0150596300    0.0047441500
  -0.0038052800   -0.0018596800    0.0025541900
  -0.0069139400    0.0001333700    0.0006037100
  -0.0058375400    0.0015359200   -0.0000507900
  -0.0052624700    0.0000502700    0.0013832600
  -0.0047003400   -0.0001282200    0.0014388600
  -0.0042136000   -0.0017943900    0.0021643000
  -0.0050972400   -0.0011548900    0.0018036300
  -0.0046972400   -0.0015966900    0.0023971300
  -0.0037344700   -0.0020835000    0.0041688200
  -0.0043921000   -0.0012720600    0.0024506800
  -0.0054998200   -0.0015106500    0.0030967400
  -0.0054045400    0.0004036300    0.0021522400
  -0.0050437100    0.0000942000    0.0015251900
  -0.0042418700   -0.0008849400    0.0026318600
  -0.0041571000   -0.0023446300    0.0030932100
  -0.0049628200   -0.0014974400    0.0025261000
  -0.0047361300   -0.0012811300    0.0021026300
  -0.0049308300   -0.0006437300    0.0009701700
  -0.0044735300   -0.0012187100    0.0020874900
  -0.0054499100   -0.0003910700    0.0014320300
  -0.0001033200    0.0311290800    0.0132446000
   0.0043346200   -0.0021254300    0.0030057800
   0.0063382300   -0.0013371100    0.0017227400
   0.0024670600   -0.0079560000   -0.0009181600
   0.0014089500   -0.0057881300    0.0011257800
   0.0031661300   -0.0052777800    0.0016637300
   0.0055801100   -0.0045774700    0.0040248100
   0.0029863600   -0.0040374500    0.0017725900
   0.0000117800   -0.0080484800    0.0012607900
   0.0030215200   -0.0028340200    0.0023071600
   0.0032677800   -0.0033489000    0.0021853000
   0.0033384300   -0.0031613800    0.0022778600
   0.0030730500   -0.0043162900    0.0016149400
   0.0028115200   -0.0041356000    0.0017602300
   0.0031742300   -0.0041196900    0.0019502000
   0.0035686400   -0.0037484300    0.0024422400
   0.0031358700   -0.0038560800    0.0020557900
   0.0030972900   -0.0036318400    0.0023905600
   0.0024191800    0.0008491200    0.0036580100
   0.0038304100   -0.0027705300    0.0023653700
   0.0056829100   -0.0012104300    0.0047154900
   0.0031588700   -0.0052437700    0.0026657000
   0.0023230700   -0.0045743000    0.0018300500
   0.0032518800   -0.0046625100    0.0017214300
   0.0034203000   -0.0058683500   -0.0005095500
   0.0031499200   -0.0039459000    0.0018676200
   0.0006836800   -0.0050644100   -0.0000972800
   0.0007832500    0.0049022400    0.0001989600
   0.0010221300    0.0047655000    0.0021899600
   0.0045818600    0.0044293300   -0.0000770900
   0.0028017100    0.0034504000    0.0010136900
   0.0008887100    0.0040370600    0.0021581700
   0.0014843000    0.0036160900    0.0025006100
   0.0030297200    0.0049560600    0.0037681400
   0.0021656700    0.0047620600    0.0017930200
  -0.0045398800    0.0036459500    0.0087915100
   0.0012981300    0.0048410800    0.0023619100
   0.0016372000    0.0047243000    0.0020181700
   0.0019764400    0.0046268200    0.0021137200
   0.0019672200    0.0041603800    0.0019657000
   0.0013050300    0.0043536600    0.0022364800
   0.0017408900    0.0043030500    0.0019602000
   0.0018813100    0.0047767700    0.0017654900
   0.0019291500    0.0045938300    0.0019409900
   0.0013066600    0.0048549300    0.0022020900
  -0.0128672900   -0.0007870600    0.0186963600
   0.0016548400    0.0050056600    0.0017878700
   0.0059865100    0.0041993500    0.0014906100
   0.0028456500    0.0030038300    0.0017965000
   0.0005207700    0.0040186100    0.0025026700
   0.0019376800    0.0032693100    0.0014369800
   0.0125237100    0.0006816700   -0.0067127500
   0.0029148300    0.0047107800    0.0015896100
  -0.0027199000    0.0068861700    0.0022507300
   0.0028252800   -0.0051340300   -0.0066221500
  -0.0020659600   -0.0050550900   -0.0046811800
   0.0027098100   -0.0043950000   -0.0017471900
   0.0029838900   -0.0056252100   -0.0013215600
   0.0009154400   -0.0055287800   -0.0028366400
   0.0009822500   -0.0052396700   -0.0021361000
   0.0041977000   -0.0065151900    0.0046233900
   0.0038662200   -0.0046868900   -0.0004944100
  -0.0000577700   -0.0044215200   -0.0025328200
   0.0018100200   -0.0043358700   -0.0017657500
   0.0014501100   -0.0043254900   -0.0020591700
   0.0020516500   -0.0045634400   -0.0017631300
   0.0021026500   -0.0049901700   -0.0017815300
   0.0016527700   -0.0048255600   -0.0019429000
   0.0014644100   -0.0048266500   -0.0020740800
   0.0014626800   -0.0043954300   -0.0020928600
   0.0020197600   -0.0046001600   -0.0019054900
   0.0015773600   -0.0044150000   -0.0019368900
   0.0142418500   -0.0082988400    0.0126680800
  -0.0016279200   -0.0021416000   -0.0027511100
   0.0034132000   -0.0043851200   -0.0013033000
   0.0029462500   -0.0059449500   -0.0016522600
   0.0014253600   -0.0058454500   -0.0017914400
   0.0006834100   -0.0052502000   -0.0026470100
  -0.0060230400   -0.0113364100   -0.0141705500
   0.0048750200   -0.0048736100   -0.0017772700
   0.0008726200   -0.0040333300   -0.0021806300
  -0.0017413800   -0.0003205700   -0.0045926200
  -0.0083106200   -0.0010167500   -0.0030426900
  -0.0045731700    0.0008230000   -0.0020698900
  -0.0048895900   -0.0033470000    0.0003416000
  -0.0049805600   -0.0009921300   -0.0015946000
  -0.0063736500   -0.0013099500   -0.0013393300
   0.0159343100    0.0672348500   -0.0290961800
  -0.0016569100    0.0022835400   -0.0013634100
  -0.0038144400    0.0026352300   -0.0029708500
  -0.0044661200    0.0009521100   -0.0024490400
  -0.0049395800    0.0009914900   -0.0023170200
  -0.0047181700    0.0007409200   -0.0020401700
  -0.0047872700    0.0001242000   -0.0015517800
  -0.0048154000    0.0004058600   -0.0018830100
  -0.0051816400    0.0002320800   -0.0015532200
  -0.0049289100    0.0015993900   -0.0018750400
  -0.0045369700    0.0012923400   -0.0020394800
  -0.0047842500    0.0011593500   -0.0020068400
  -0.0038225100   -0.0016108600    0.0011665300
  -0.0073006600   -0.0002378400    0.0009482000
  -0.0046243200    0.0007462500   -0.0019189800
  -0.0046977600   -0.0003799700   -0.0021862600
  -0.0048566900   -0.0003235200   -0.0014604800
  -0.0055198900    0.0000014200   -0.0018493600
  -0.0056084300    0.0041040000   -0.0044147600
  -0.0030534600    0.0027390000   -0.0044575100
  -0.0042085600    0.0018569000   -0.0023158100
   0.0103527700   -0.0111297600   -0.0035978400
   0.0012132000    0.0046669200   -0.0010801700
   0.0044924900    0.0025714700   -0.0028043000
   0.0067562800   -0.0016190800   -0.0038764300
   0.0033135300    0.0024966500   -0.0023731100
   0.0024545200    0.0017633700   -0.0029028600
  -0.0933526800    0.0918673000    0.0908165500
   0.0043755200    0.0040510300   -0.0022691600
   0.0033898000    0.0074431200   -0.0011572100
   0.0036143700    0.0024255800   -0.0038931600
   0.0027976600    0.0034482700   -0.0025633100
   0.0037486800    0.0031886400   -0.0025148700
   0.0038482800    0.0026430700   -0.0021493700
   0.0031318300    0.0031319400   -0.0023068700
   0.0028560800    0.0031360500   -0.0016101900
   0.0023653600    0.0066247700    0.0001795000
   0.0032023300    0.0043140600   -0.0015215000
   0.0020908800    0.0052173500   -0.0011621500
   0.0027213100    0.0040042500   -0.0009712000
   0.0023847300    0.0040530800   -0.0013363500
   0.0034757800    0.0034095500   -0.0020786600
   0.0037659000    0.0025137100   -0.0029047300
   0.0031228600    0.0033734200   -0.0019795600
   0.0030287000    0.0032215900   -0.0024404600
   0.0028122100    0.0048427500   -0.0018729000
   0.0036101200    0.0038786600   -0.0024236900
   0.0027985800    0.0047691600   -0.0012558600

1    
  0.0049999999317785  -0.0086602540772321   0.0000000000000000
  -0.2162218400    0.4063693400    0.0013038100
   0.0046430200    0.0039139700   -0.0000867700
   0.0046386900    0.0038924600    0.0005795500
   0.0084230600   -0.0113492500   -0.0066268700
  -0.0043902800   -0.0039669200    0.0011231900
   0.0017708900   -0.0019583500   -0.0006921200
   0.0084322000   -0.0113968600    0.0044066400
   0.0012688700   -0.0022484800    0.0002973700
  -0.0044058900   -0.0039619300   -0.0022794200
  -0.0009926100    0.0034729600    0.0006563900
   0.0006702900    0.0012076700    0.0002240100
   0.0004186300    0.0013487400    0.0003667900
   0.0017976900   -0.0013850800   -0.0012834400
   0.0002759900   -0.0005064500   -0.0006545800
   0.0011542800   -0.0009347200   -0.0000969700
   0.0018498000   -0.0018293400    0.0011490300
   0.0009466200   -0.0009057600    0.0001373400
   0.0003074500   -0.0009385600    0.0012353300
   0.0006549500    0.0044258000   -0.0000710400
   0.0020035100    0.0022677000   -0.0011036400
   0.0022593000    0.0021199000    0.0021471400
   0.0004255000   -0.0026557300    0.0029990900
  -0.0011124300   -0.0017635100    0.0012546000
   0.0009996700   -0.0008761700   -0.0001142000
   0.0005451100   -0.0021050700   -0.0024463700
   0.0007941500   -0.0011409600    0.0003150700
  -0.0009800300   -0.0012259400   -0.0014588200
  -0.0108679900   -0.0082807500   -0.0120276500
   0.0003369100    0.0017304500    0.0010120100
   0.0068802900    0.0010616100   -0.0054961400
  -0.0009537700   -0.0040625600   -0.0020271500
  -0.0021856800   -0.0022080800    0.0001588400
   0.0003370900   -0.0034848300    0.0017465100
   0.0042875200    0.0002931500    0.0033337400
  -0.0009533000    0.0016642200   -0.0016191500
  -0.0109689100   -0.0192661200    0.0189968400
  -0.0007742000    0.0014058300    0.0000281600
  -0.0001039300    0.0007844500    0.0001209200
  -0.0000024700    0.0011779300   -0.0000328600
  -0.0003720000   -0.0002538600   -0.0001145900
  -0.0010171200   -0.0001479900    0.0001992300
  -0.0001038700   -0.0003062800    0.0002456800
   0.0001698600    0.0008626700    0.0000294500
  -0.0003713900    0.0006836600   -0.0000580900
  -0.0007737300    0.0010907400    0.0003235200
  -0.0121721300    0.0087813900    0.0090025600
   0.0009007800    0.0011095000    0.0006667200
   0.0106650900    0.0001255000    0.0067381800
   0.0000703700   -0.0025212700    0.0005339300
  -0.0021721000   -0.0005618300    0.0000316200
   0.0008996200   -0.0020325300   -0.0004472100
   0.0068908700   -0.0011539300   -0.0071052300
   0.0000712300    0.0010877900   -0.0010181700
  -0.0121924400    0.0034467200   -0.0073291500
   0.0124296600   -0.0466930300    0.0434143100
  -0.0024444300    0.0033681800   -0.0014064700
   0.0039502600   -0.0009478900   -0.0006320000
   0.0029569800   -0.0076305900    0.0005965000
  -0.0017152200   -0.0035025000    0.0005389100
  -0.0010165500   -0.0038128800   -0.0007712900
   0.0221746900   -0.0412800500   -0.0321225200
   0.0027945800   -0.0008965800    0.0007851200
  -0.0044080800    0.0044148800    0.0002547200
  -0.0015524800   -0.0008750800   -0.0073420000
  -0.0025039100   -0.0002769300   -0.0017422600
   0.0020940100   -0.0004186600   -0.0014711600
   0.0015247900   -0.0024276500   -0.0000306500
  -0.0014580400   -0.0018601100   -0.0006776500
  -0.0010293500   -0.0022208500    0.0005208300
   0.0030607300    0.0018116400    0.0079470700
   0.0012627100   -0.0002878900    0.0014096700
  -0.0054800900    0.0001092500    0.0023358300
  -0.0008792100    0.0002408800    0.0009977100
  -0.0008821000    0.0003332500   -0.0000392600
   0.0003574700   -0.0009494300    0.0004941200
   0.0005884100   -0.0024647700    0.0003636000
  -0.0006765900   -0.0013918300    0.0004458200
  -0.0004563000   -0.0014175100   -0.0001657000
  -0.0006081200    0.0004021100   -0.0008454100
   0.0002679900   -0.0008460600   -0.0000943200
  -0.0010676500    0.0004731300    0.0001232500
   0.1172756000   -0.1474786000    0.0825836300
  -0.0052785000   -0.0038406700    0.0028281300
  -0.0061198000   -0.0011661500    0.0018737100
  -0.0080395000    0.0046844900    0.0004763100
  -0.0039390100    0.0009886600    0.0014235600
  -0.0051102700    0.0005572500    0.0016231700
  -0.0116884000    0.0134559000   -0.0007162900
  -0.0058397400    0.0002232400    0.0014316400
  -0.0027539100   -0.0017769900    0.0033880700
  -0.0038302300   -0.0031788900    0.0040408800
  -0.0043665400   -0.0017072900    0.0026039400
  -0.0049608400   -0.0015212300    0.0025237000
  -0.0054437500    0.0001375400    0.0018256000
  -0.0045550000   -0.0004913700    0.0021951400
  -0.0049469000   -0.0000710200    0.0015951300
  -0.0059084400    0.0004354800   -0.0001713400
  -0.0052546600   -0.0003611800    0.0015313100
  -0.0041669200   -0.0001349100    0.0009041700
  -0.0042568200   -0.0020501300    0.0018395200
  -0.0045876800   -0.0017454800    0.0024547700
  -0.0054189700   -0.0007675200    0.0013341800
  -0.0054986000    0.0006866900    0.0009020100
  -0.0046882800   -0.0001518100    0.0014752000
  -0.0049098400   -0.0003867500    0.0018898500
  -0.0047130400   -0.0010048600    0.0030285000
  -0.0051701500   -0.0004152100    0.0018954300
  -0.0042146400   -0.0012475000    0.0025600800
   0.0056775300   -0.0393994200   -0.0101577200
   0.0019518900   -0.0052968600    0.0010865600
  -0.0000290000   -0.0060757700    0.0023674100
   0.0038104200    0.0005266500    0.0050016900
   0.0048891500   -0.0016177300    0.0029574900
   0.0031208400   -0.0021228500    0.0024112800
   0.0006788000   -0.0028448300    0.0000412500
   0.0033079800   -0.0033862500    0.0023110400
   0.0062931200    0.0005852200    0.0027930700
   0.0032615900   -0.0046006500    0.0017784400
   0.0030191100   -0.0040698800    0.0019076500
   0.0029541900   -0.0042639200    0.0018079500
   0.0032080700   -0.0031010700    0.0024746100
   0.0034875000   -0.0032689300    0.0023245100
   0.0031076800   -0.0032829100    0.0021230700
   0.0026997600   -0.0036747700    0.0016299800
   0.0031596300   -0.0035644100    0.0020279800
   0.0031996300   -0.0037946100    0.0016683100
   0.0038636400   -0.0082731300    0.0004247700
   0.0024570500   -0.0046463900    0.0017266000
   0.0006091300   -0.0062154100   -0.0006274400
   0.0031247000   -0.0021722300    0.0014305400
   0.0039750600   -0.0028331300    0.0022533200
   0.0030319300   -0.0027403500    0.0023539700
   0.0028494500   -0.0015613800    0.0045801100
   0.0031457100   -0.0034768700    0.0022164700
   0.0056097300   -0.0023667200    0.0041501400
   0.0025962500    0.0042969500    0.0037825400
   0.0023829500    0.0043943600    0.0017938100
  -0.0011386700    0.0047329800    0.0040557300
   0.0006234800    0.0056892200    0.0029590600
   0.0025082600    0.0051023500    0.0018171800
   0.0019348000    0.0055379000    0.0014889600
   0.0003809200    0.0042072900    0.0002068700
   0.0012440100    0.0043869600    0.0022000300
   0.0079248400    0.0055036700   -0.0047505300
   0.0021152600    0.0043258500    0.0015985000
   0.0017590600    0.0044356200    0.0019668400
   0.0014517400    0.0045348400    0.0018734800
   0.0014557100    0.0049780900    0.0020096000
   0.0020953700    0.0047871700    0.0017392100
   0.0016731500    0.0048493400    0.0020318200
   0.0015298800    0.0043876600    0.0022200000
   0.0014827700    0.0045544800    0.0020520400
   0.0021093900    0.0043083300    0.0017850100
   0.0162565700    0.0099534600   -0.0146802200
   0.0017445600    0.0041552300    0.0021957100
  -0.0025576300    0.0049638300    0.0024999500
   0.0005750000    0.0061352200    0.0021853800
   0.0028768900    0.0051225100    0.0014740300
   0.0014800100    0.0058851300    0.0025575700
  -0.0090694800    0.0084468600    0.0106861900
   0.0004977200    0.0044388400    0.0024048600
   0.0061299500    0.0022716500    0.0017297200
   0.0005789300   -0.0040655100    0.0025872500
   0.0055000100   -0.0041142000    0.0007213700
   0.0006926700   -0.0047803400   -0.0022514500
   0.0004025500   -0.0035443800   -0.0026633000
   0.0024747500   -0.0036549600   -0.0011692200
   0.0024286800   -0.0039306900   -0.0018457300
  -0.0007545800   -0.0027000000   -0.0085918700
  -0.0004939100   -0.0045017700   -0.0035025600
   0.0034590000   -0.0047657000   -0.0014631500
   0.0015898200   -0.0048558700   -0.0022299900
   0.0019447700   -0.0048671900   -0.0019341500
   0.0013454500   -0.0046124700   -0.0022365300
   0.0012829800   -0.0041793100   -0.0022005000
   0.0017432200   -0.0043562000   -0.0020574800
   0.0019450300   -0.0043434100   -0.0019091200
   0.0019350600   -0.0047978500   -0.0018731800
   0.0013605500   -0.0045887700   -0.0020876000
   0.0018341800   -0.0047742300   -0.0020581000
  -0.0108554100   -0.0008854800   -0.0166977500
   0.0050181800   -0.0070434200   -0.0012464000
  -0.0000131200   -0.0047890700   -0.0026932900
   0.0004453400   -0.0032244000   -0.0023224900
   0.0019680900   -0.0033397200   -0.0022089800
   0.0027256400   -0.0039199600   -0.0013363400
   0.0094115400    0.0021105900    0.0102094600
  -0.0014863400   -0.0043167500   -0.0022128300
   0.0025332500   -0.0051548500   -0.0018160500
  -0.0078319000    0.0020397100    0.0005016300
  -0.0012639500    0.0027957900   -0.0010664500
  -0.0049870300    0.0008962500   -0.0020060500
  -0.0046751300    0.0050940300   -0.0044416500
  -0.0045872900    0.0027369800   -0.0024868600
  -0.0032057500    0.0030483100   -0.0027440900
  -0.0260593900   -0.0651240300    0.0250341100
  -0.0079127100   -0.0005580000   -0.0027077800
  -0.0057621000   -0.0008906100   -0.0010863700
  -0.0051138600    0.0007734700   -0.0016385200
  -0.0046254800    0.0007415400   -0.0017736600
  -0.0048429300    0.0009777600   -0.0020346200
  -0.0047808400    0.0016092300   -0.0025410300
  -0.0047506900    0.0013452400   -0.0022009800
  -0.0043943300    0.0015082100   -0.0025300600
  -0.0046493400    0.0001365700   -0.0022082400
  -0.0050143100    0.0004438400   -0.0020336100
  -0.0047941500    0.0005800000   -0.0020491900
  -0.0057622300    0.0033397100   -0.0052533300
  -0.0022691200    0.0019711000   -0.0050358000
  -0.0049375100    0.0009719400   -0.0021560900
  -0.0048709400    0.0021094400   -0.0019029200
  -0.0047096500    0.0020709500   -0.0026196600
  -0.0040555100    0.0017382700   -0.0022339700
  -0.0039728100   -0.0023662200    0.0003225700
  -0.0064950400   -0.0009986600    0.0003812000
  -0.0053694600   -0.0001168100   -0.0017416200
  -0.0041026200    0.0186764500   -0.0003404200
   0.0049904200    0.0028735300   -0.0028970500
   0.0017444300    0.0049622100   -0.0011839200
  -0.0005292100    0.0091491900   -0.0001041500
   0.0028999300    0.0050164900   -0.0016019900
   0.0037677500    0.0057612400   -0.0010938900
   0.1034737700   -0.0866509000   -0.1003429700
   0.0018457000    0.0034786400   -0.0017211800
   0.0028305300    0.0001119000   -0.0028253200
   0.0026109300    0.0051094600   -0.0000727800
   0.0034065200    0.0040929400   -0.0014072900
   0.0024861200    0.0043430400   -0.0014745900
   0.0023883300    0.0048743900   -0.0018399300
   0.0030827000    0.0043817000   -0.0016692000
   0.0033634700    0.0043897600   -0.0023839900
   0.0038568600    0.0009165500   -0.0041645400
   0.0030200600    0.0032158000   -0.0024744800
   0.0041315300    0.0023313600   -0.0028225200
   0.0035072400    0.0035362200   -0.0029845800
   0.0038187100    0.0034824300   -0.0026388000
   0.0027558500    0.0041224000   -0.0019072700
   0.0024701900    0.0050022000   -0.0010824900
   0.0030921600    0.0041415100   -0.0019952700
   0.0031891600    0.0043047600   -0.0015552100
   0.0034084300    0.0027059300   -0.0021169400
   0.0026123300    0.0036524800   -0.0015715100
   0.0034282700    0.0027732100   -0.0027314900

1    
  0.0000000000000000   0.0000000000000000   0.0100000000000000
  -0.0025225500    0.0064140300   -0.4599789200
   0.0006899500   -0.0006424300   -0.0045321800
   0.0007002800    0.0001270100   -0.0045318000
   0.0039787700   -0.0031577400   -0.0085118100
   0.0050399000    0.0051765800   -0.0084976100
   0.0016829500    0.0002611500   -0.0019369900
  -0.0036550600    0.0051835200   -0.0085003800
  -0.0002944900    0.0002614800   -0.0019371100
  -0.0025678400   -0.0031408700   -0.0084867700
  -0.0000390300   -0.0003021200    0.0076769000
   0.0024765200   -0.0014147200    0.0022246700
  -0.0006359500    0.0005422100    0.0022261900
  -0.0011006000    0.0018264000    0.0029879900
   0.0005238500    0.0016209300    0.0029835000
   0.0011071700   -0.0000922900    0.0011846700
   0.0024626700   -0.0024142900    0.0023621800
   0.0004469000    0.0000212400    0.0011922200
   0.0008030200   -0.0013530000    0.0023590400
   0.0014272900   -0.0003011500    0.0076515000
  -0.0010848100   -0.0014173900    0.0022285700
   0.0020211500    0.0005426700    0.0022278800
   0.0005857800   -0.0013506700    0.0023634300
  -0.0010668400   -0.0024093700    0.0023609800
   0.0009453100    0.0000197500    0.0011946700
   0.0008729800    0.0016200500    0.0029887100
   0.0002813600   -0.0000910600    0.0011880700
   0.0024840000    0.0018193000    0.0029848000
   0.0187594100    0.0400067700    0.0212539200
   0.0014217400    0.0001645100   -0.0028022700
  -0.0058334700    0.0040177100   -0.0066923000
  -0.0019396000    0.0007568700   -0.0022698200
  -0.0001570700    0.0011566100    0.0000588400
   0.0006917200    0.0008773900   -0.0028041900
   0.0030098500   -0.0029967700   -0.0058869000
  -0.0023459900    0.0008308600   -0.0022677400
  -0.0124076700   -0.0294675900    0.0211907400
   0.0000085200    0.0015149300    0.0042433300
  -0.0000732800    0.0009237200    0.0019308000
  -0.0003535800    0.0007107800    0.0025971100
  -0.0003752500    0.0011533400    0.0018796800
  -0.0001171500    0.0008531900    0.0022444200
  -0.0001964900    0.0003697200    0.0019325400
  -0.0002871000    0.0004859900    0.0028149800
  -0.0004347900    0.0004249600    0.0018774000
  -0.0002897900   -0.0004474900    0.0042439100
  -0.0076399800   -0.0036930500    0.0076251800
  -0.0007599500    0.0000210700   -0.0000513400
   0.0064233100   -0.0006370100    0.0033161900
  -0.0013369000   -0.0005647100    0.0001729400
  -0.0002827900    0.0004904800   -0.0012491700
   0.0003493500    0.0017896400   -0.0000508600
  -0.0074257600    0.0026496800    0.0054953500
   0.0002172300    0.0008399900    0.0001705600
   0.0086870700    0.0044922800    0.0076195000
   0.0115461200   -0.0305223700    0.0213533300
  -0.0037483900   -0.0042172700   -0.0058023800
   0.0016032300   -0.0003898000   -0.0022033800
  -0.0005866000   -0.0000664900    0.0001269100
  -0.0014379000   -0.0003453800   -0.0027365900
   0.0011923200   -0.0004601200   -0.0022006100
  -0.0192982200    0.0386057300    0.0212899500
  -0.0021708100   -0.0010545900   -0.0027385200
   0.0050619500    0.0027955000   -0.0065893000
  -0.0094422900    0.0033070400    0.0077080900
   0.0066790700    0.0014312500    0.0055459500
  -0.0009681000   -0.0003809200    0.0002291500
  -0.0004606700   -0.0007301400   -0.0011944500
  -0.0010912600    0.0005709400    0.0000045000
   0.0005894100   -0.0017857300    0.0002270800
   0.0069206600   -0.0049429300    0.0077020900
   0.0000168900   -0.0011990600    0.0000045700
  -0.0071717400   -0.0018615400    0.0033692200
  -0.0004571100   -0.0016603300    0.0043032200
  -0.0004555100   -0.0007331300    0.0028774600
  -0.0003120500   -0.0007937500    0.0019413300
  -0.0006266300   -0.0003657200    0.0023070600
  -0.0005489300   -0.0008492500    0.0019931900
  -0.0003701700   -0.0000697100    0.0019397000
  -0.0007489100    0.0002889000    0.0043030500
  -0.0006714000   -0.0002975200    0.0019944800
  -0.0003955800   -0.0005103000    0.0026581500
   0.0523126200   -0.0645932400    0.0758074500
  -0.0040027500   -0.0005028300    0.0050333500
  -0.0048027600   -0.0014586000    0.0034985100
  -0.0054746400   -0.0003723500    0.0031608700
  -0.0039169600   -0.0029353400    0.0049569300
  -0.0050798600   -0.0011484900    0.0029531800
   0.0004371800   -0.0169690700    0.0097081100
  -0.0041027400   -0.0014864500    0.0032881200
  -0.0037342100   -0.0026267900    0.0060834700
  -0.0041396300   -0.0002803400   -0.0013551200
  -0.0066996100    0.0004742600   -0.0002764100
  -0.0045472700   -0.0010407400    0.0016961200
  -0.0043664800   -0.0014702300    0.0020199700
  -0.0047269000   -0.0016326700    0.0016349700
  -0.0052269100   -0.0004421800    0.0015242900
  -0.0068004400    0.0020282200   -0.0009698300
  -0.0049238000   -0.0005539000    0.0016657300
  -0.0043155800    0.0005793700    0.0001902600
  -0.0057991300    0.0008879400   -0.0009698700
  -0.0046913400   -0.0000244400    0.0006470800
  -0.0053119500   -0.0002964100    0.0008894300
  -0.0050898000   -0.0001718200    0.0009007000
  -0.0049167200    0.0001339200    0.0008665100
  -0.0049768700   -0.0006580100    0.0013223400
  -0.0048770900   -0.0007264300    0.0002808300
  -0.0047562200   -0.0005955000    0.0012354500
  -0.0054481600   -0.0004517800    0.0006081800
   0.0894640900    0.0597282900    0.1324387800
   0.0032163600   -0.0029926000    0.0036492600
   0.0046974000   -0.0037784600    0.0047851300
   0.0043095000   -0.0026930200    0.0047813400
   0.0018331500   -0.0052484800    0.0026116100
   0.0029379000   -0.0036926900    0.0028986100
   0.0046368600   -0.0019705300    0.0059547300
   0.0039491900   -0.0032048200    0.0032125600
   0.0077291200    0.0068782000    0.0050337200
   0.0021892100   -0.0050840300   -0.0008801100
   0.0024525500   -0.0041132100    0.0008301200
   0.0031346300   -0.0042445500    0.0008913700
   0.0029446500   -0.0046384500    0.0007345900
   0.0026623600   -0.0045729100    0.0006545700
   0.0028899700   -0.0039543200    0.0012889700
   0.0024634700   -0.0039154600    0.0006798100
   0.0030599800   -0.0039594600    0.0013210100
   0.0029230600   -0.0037764700    0.0006886900
   0.0032589800   -0.0034771100   -0.0023041000
   0.0036209900   -0.0032210200    0.0019430600
   0.0013711100   -0.0046295500    0.0004528800
   0.0031510800   -0.0029947900    0.0015042600
   0.0036379900   -0.0030050700    0.0022106700
   0.0027254400   -0.0041444100    0.0015935800
   0.0033644600   -0.0057130800   -0.0003603500
   0.0030347200   -0.0039439100    0.0017221400