48   
3    

1    
  0.0083548552763915   0.0000000000000000   0.0054951245036444
  -0.0827518800   -0.0056285100   -0.0716724900
   0.0097887100    0.0003233300   -0.0007949400
  -0.0050886800    0.0003232900   -0.0007948600
   0.0037918700    0.0004857400   -0.0001612500
  -0.0171844900    0.0053375500    0.0264724400
   0.0063735100   -0.0004052800    0.0007756700
  -0.0041665900   -0.0004051900    0.0007755900
   0.0030112000    0.0000284200    0.0001579000
   0.0052308200    0.0072149200    0.0050992400
   0.0005673400   -0.0025025700   -0.0020172600
   0.0070388800   -0.0090227700    0.0023646000
   0.0023650500    0.0043083400   -0.0047848100
   0.0023395400    0.0043091100   -0.0047706400
   0.0070393100   -0.0089686500    0.0023317100
   0.0005166500   -0.0024944200   -0.0020334600
   0.0052271300    0.0071562000    0.0051020700
   0.0080526600   -0.0079233200   -0.0007777700
   0.0046748800   -0.0056132000    0.0001423500
   0.0226605100   -0.0150998300    0.0171589200
   0.0025789000   -0.0056501100    0.0008910700
   0.0084445900   -0.0073350500    0.0007704300
   0.0045155800   -0.0054538100   -0.0001423800
   0.0152971300   -0.0076609000    0.0040262700
   0.0019987500   -0.0060418900   -0.0008974300
  -0.0103510800    0.0062900600   -0.0009043500
   0.0030424200    0.0045916200    0.0038995100
  -0.0078233200    0.0068895300   -0.0001433400
  -0.0038981800    0.0050043600    0.0007730100
  -0.0097548700    0.0066840900    0.0008960300
   0.0096075900   -0.0019060000    0.0158263400
  -0.0076625500    0.0067289400    0.0001433700
  -0.0042922000    0.0044161700   -0.0007803300
   0.0034749700    0.0039879600    0.0000924300
   0.0073222800    0.0086485200    0.0014606300
   0.0019699200    0.0075539900    0.0014729200
   0.0220407900    0.0152630800    0.0049531100
   0.0050120900    0.0053788200   -0.0001150900
   0.0068430600    0.0080279300   -0.0014349100
   0.0036533100    0.0064906800   -0.0014425000
   0.0081626200    0.0047024100   -0.0033970700
   0.0102673600    0.0036017900    0.0048875700
  -0.0103560400   -0.0048097200    0.0014567500
  -0.0050049400   -0.0036895200    0.0014690100
  -0.0088778300   -0.0083572000    0.0000899900
  -0.0041726000   -0.0076449200   -0.0034302600
  -0.0087018300   -0.0058565200   -0.0014352700
  -0.0054917700   -0.0043196300   -0.0014427800
  -0.0073306100   -0.0069578300   -0.0001157600

17   
  0.0083548552763915   0.0000000000000000   0.0054951245036444
   0.0015728700   -0.0002729300   -0.0002889700
  -0.0014622600    0.0005447900    0.0001358200
   0.0164387900   -0.0087077000    0.0148765400
  -0.0032709300   -0.0009518900    0.0004600900
   0.0025974100    0.0009077000    0.0003123200
  -0.0016515400    0.0007328300   -0.0001071300
   0.0085639100   -0.0009235200    0.0049060000
  -0.0044634000   -0.0019816000   -0.0004369400
   0.0164519700   -0.0097841000    0.0048884200
  -0.0041785500   -0.0024739500    0.0014660900
   0.0011817400   -0.0013687900    0.0014803200
  -0.0026872600    0.0021809400    0.0001064200
   0.0020201200    0.0014784600   -0.0034144700
  -0.0025107800   -0.0018507000   -0.0014114300
   0.0006964600   -0.0003181100   -0.0014253300
  -0.0011472500    0.0007841400   -0.0001010100
  -0.0554704700    0.0271655700   -0.0389994000
   0.0084911800   -0.0063933300   -0.0004203300
   0.0054101500   -0.0063939800   -0.0004216600
   0.0069697300   -0.0065178000   -0.0000551100
   0.0030294700   -0.0052353400    0.0078653400
   0.0084015900   -0.0063577900    0.0004927700
   0.0055321900   -0.0063595700    0.0004939900
   0.0068527000   -0.0064571300    0.0000839300
  -0.0049086400    0.0047688900   -0.0003762000
  -0.0066455800    0.0074927600   -0.0004917100
  -0.0046302800    0.0075000500   -0.0004965200
   0.0025698500   -0.0054486200   -0.0021023900
  -0.0053863600    0.0051956000    0.0004238200
  -0.0069136700    0.0068656400    0.0004594300
  -0.0056786500    0.0068714300    0.0004629200
  -0.0062943700    0.0053929400    0.0011365800
   0.0089167000    0.0055854300   -0.0036519900
   0.0150474600    0.0094732400    0.0057336400
   0.0059444400    0.0059589200   -0.0000564300
   0.0062357500    0.0055502000    0.0003780500
   0.0149143900    0.0046830000    0.0063094700
   0.0086384900    0.0076031600   -0.0031823500
   0.0064307900    0.0062934700    0.0000743700
   0.0061497900    0.0055403600   -0.0003599200
  -0.0085381800   -0.0055878600   -0.0001292300
  -0.0046722900   -0.0053082100    0.0000002700
  -0.0090465700   -0.0084204500    0.0006452300
  -0.0048417200   -0.0061715500    0.0002613800
  -0.0076676800   -0.0115163700    0.0027411000
  -0.0050019100   -0.0057900500    0.0000148700
  -0.0071583300   -0.0018916500    0.0019657000
  -0.0048312800   -0.0060865500   -0.0002463500

17   
 -0.0083548552763915   0.0000000000000000  -0.0054951245036444
  -0.0015861600    0.0002692600    0.0002869200
   0.0014680500   -0.0005403300   -0.0001349800
  -0.0171296700    0.0095724200   -0.0161981600
   0.0032809600    0.0009479600   -0.0004587200
  -0.0026038300   -0.0009119000   -0.0003091600
   0.0016538200   -0.0007272700    0.0001069200
  -0.0085307300    0.0008748800   -0.0049851800
   0.0044501900    0.0019604600    0.0004362800
  -0.0158843800    0.0090818700   -0.0049812900
   0.0041760600    0.0024875100   -0.0014911100
  -0.0011629300    0.0013783400   -0.0014767100
   0.0026828800   -0.0021834200   -0.0001062400
  -0.0019977100   -0.0014607700    0.0033829000
   0.0025089300    0.0018614400    0.0014365600
  -0.0006830100    0.0003207300    0.0014225000
   0.0011441200   -0.0007886200    0.0001018800
   0.0679501100   -0.0396508600    0.0404391800
   0.0038496800   -0.0059457300    0.0004209600
   0.0069319400   -0.0059473700    0.0004201600
   0.0053706200   -0.0058231800    0.0000558100
   0.0093108000   -0.0071046300   -0.0078685700
   0.0039396200   -0.0059804600   -0.0004927500
   0.0068110600   -0.0059827700   -0.0004914800
   0.0054875000   -0.0058840900   -0.0000840500
  -0.0074324300    0.0075648500    0.0003734200
  -0.0056862300    0.0048457200    0.0004960100
  -0.0077089900    0.0048532400    0.0004911700
  -0.0149601700    0.0179138500    0.0021516100
  -0.0069576600    0.0071395900   -0.0004200200
  -0.0054204100    0.0054704700   -0.0004620100
  -0.0066677700    0.0054762900   -0.0004585200
  -0.0060430400    0.0069530100   -0.0011534000
   0.0034052700    0.0067508200    0.0036416900
  -0.0028775100    0.0028141900   -0.0058444200
   0.0063898700    0.0063787900    0.0000578000
   0.0061090100    0.0067923300   -0.0003765500
  -0.0024043900    0.0076118000   -0.0061895100
   0.0037328400    0.0047422500    0.0031902000
   0.0059046100    0.0060443800   -0.0000721800
   0.0061943700    0.0068026400    0.0003623500
  -0.0038046900   -0.0067250400    0.0001556800
  -0.0076734200   -0.0070412700   -0.0000006200
  -0.0032957300   -0.0039528400   -0.0006166600
  -0.0074979200   -0.0061658100   -0.0002629100
  -0.0046968400   -0.0008482200   -0.0027476000
  -0.0073339600   -0.0065513100   -0.0000165300
  -0.0052050200   -0.0104411800   -0.0019763500
  -0.0075076600   -0.0062519600    0.0002456900
