# epsilon and Z* of atoms 1 5
   2.70010431   -0.00000000    0.00000000    0.00000000    2.70010431   -0.00000000   -0.00000000    0.00000000    2.70010431 
   1.22405728   -0.00000000   -0.00000000    0.00000000    1.22405728   -0.00000000   -0.00000000   -0.00000000    1.22405728 
  -1.22405728    0.00000000    0.00000000    0.00000000   -1.22405728    0.00000000    0.00000000    0.00000000   -1.22405728 
