64   
2    

1    
  0.0100000000000000   0.0000000000159709   0.0000000000169129
  -0.0109689400   -0.0000000000   -0.0000000000
   0.0012205500    0.0000000000    0.0000000000
  -0.0000843200   -0.0000000000   -0.0000000000
   0.0001283000    0.0000000000    0.0000000000
  -0.0000843200   -0.0000000000   -0.0000000000
   0.0001283000    0.0000000000    0.0000000000
  -0.0000553600   -0.0000000000   -0.0000000000
   0.0000778800    0.0000000000    0.0000000000
   0.0002933100    0.0008697700    0.0000000000
   0.0002933800   -0.0008655800   -0.0000000000
   0.0002933100   -0.0008697700   -0.0000000000
   0.0002933800    0.0008655800    0.0000000000
   0.0000080800    0.0000238300    0.0000000000
   0.0000086400   -0.0000233400   -0.0000000000
   0.0000080800   -0.0000238300   -0.0000000000
   0.0000086400    0.0000233400    0.0000000000
   0.0002933100    0.0000000000    0.0008697700
   0.0002933800   -0.0000000000   -0.0008655800
   0.0000080800    0.0000000000    0.0000238300
   0.0000086400   -0.0000000000   -0.0000233400
   0.0002933100   -0.0000000000   -0.0008697700
   0.0002933800    0.0000000000    0.0008655800
   0.0000080800   -0.0000000000   -0.0000238300
   0.0000086400    0.0000000000    0.0000233400
  -0.0002652300   -0.0000009600   -0.0000009600
   0.0001984800    0.0000002500    0.0000002500
  -0.0002652300    0.0000009600   -0.0000009600
   0.0001984800   -0.0000002500    0.0000002500
  -0.0002652300   -0.0000009600    0.0000009600
   0.0001984800    0.0000002500   -0.0000002500
  -0.0002652300    0.0000009600    0.0000009600
   0.0001984800   -0.0000002500   -0.0000002500
   0.0007007700    0.0000000000   -0.0000048600
  -0.0003626500   -0.0000000000   -0.0000002000
   0.0001012900    0.0000000000    0.0000002600
  -0.0000840400   -0.0000000000   -0.0000000000
   0.0007007700    0.0000000000    0.0000048600
  -0.0003626500   -0.0000000000    0.0000002000
   0.0001012900    0.0000000000   -0.0000002600
  -0.0000840400   -0.0000000000    0.0000000000
   0.0031732400    0.0000000000    0.0000000000
   0.0029987900    0.0000000000    0.0000000000
   0.0000196900    0.0000000000    0.0000000000
   0.0000187400    0.0000000000    0.0000000000
   0.0000196900    0.0000000000    0.0000000000
   0.0000187400    0.0000000000    0.0000000000
   0.0000128900    0.0000000000    0.0000000000
   0.0000125200    0.0000000000    0.0000000000
   0.0007007700   -0.0000048600    0.0000000000
  -0.0003626500   -0.0000002000   -0.0000000000
   0.0007007700    0.0000048600    0.0000000000
  -0.0003626500    0.0000002000   -0.0000000000
   0.0001012900    0.0000002600    0.0000000000
  -0.0000840400   -0.0000000000   -0.0000000000
   0.0001012900   -0.0000002600    0.0000000000
  -0.0000840400    0.0000000000   -0.0000000000
  -0.0000252100   -0.0001769500   -0.0001769500
  -0.0000259100    0.0001761300    0.0001761300
  -0.0000252100    0.0001769500   -0.0001769500
  -0.0000259100   -0.0001761300    0.0001761300
  -0.0000252100   -0.0001769500    0.0001769500
  -0.0000259100    0.0001761300   -0.0001761300
  -0.0000252100    0.0001769500    0.0001769500
  -0.0000259100   -0.0001761300   -0.0001761300

33   
  0.0100000000000000   0.0000000000159709   0.0000000000169129
   0.0006839900    0.0000000000   -0.0000013000
  -0.0003706700   -0.0000000000   -0.0000013600
   0.0000871200    0.0000000000    0.0000008100
  -0.0000904900   -0.0000000000    0.0000010700
   0.0006839900    0.0000000000    0.0000013000
  -0.0003706700   -0.0000000000    0.0000013600
   0.0000871200    0.0000000000   -0.0000008100
  -0.0000904900   -0.0000000000   -0.0000010700
  -0.0000353300   -0.0001769200    0.0001769200
  -0.0000385300    0.0001731100   -0.0001731100
  -0.0000353300    0.0001769200    0.0001769200
  -0.0000385300   -0.0001731100   -0.0001731100
  -0.0000353300   -0.0001769200   -0.0001769200
  -0.0000385300    0.0001731100    0.0001731100
  -0.0000353300    0.0001769200   -0.0001769200
  -0.0000385300   -0.0001731100    0.0001731100
   0.0031568400    0.0000000000    0.0000000000
   0.0030149800    0.0000000000    0.0000000000
   0.0000109200    0.0000000000    0.0000000000
   0.0000074200    0.0000000000    0.0000000000
   0.0000109200    0.0000000000    0.0000000000
   0.0000074200    0.0000000000    0.0000000000
  -0.0000004200   -0.0000000000   -0.0000000000
  -0.0000012400   -0.0000000000   -0.0000000000
   0.0006839900    0.0000013000    0.0000000000
  -0.0003706700    0.0000013600   -0.0000000000
   0.0006839900   -0.0000013000    0.0000000000
  -0.0003706700   -0.0000013600   -0.0000000000
   0.0000871200   -0.0000008100    0.0000000000
  -0.0000904900   -0.0000010700   -0.0000000000
   0.0000871200    0.0000008100    0.0000000000
  -0.0000904900    0.0000010700   -0.0000000000
  -0.0100627900   -0.0000000000   -0.0000000000
   0.0013254100    0.0000000000    0.0000000000
  -0.0001383900   -0.0000000000   -0.0000000000
   0.0001790600    0.0000000000    0.0000000000
  -0.0001383900   -0.0000000000   -0.0000000000
   0.0001790600    0.0000000000    0.0000000000
  -0.0000594900   -0.0000000000   -0.0000000000
   0.0000616800    0.0000000000    0.0000000000
   0.0002348000   -0.0000000000   -0.0005951800
   0.0002387100    0.0000000000    0.0006005600
  -0.0000036300   -0.0000000000   -0.0000569100
  -0.0000013800    0.0000000000    0.0000546300
   0.0002348000    0.0000000000    0.0005951800
   0.0002387100   -0.0000000000   -0.0006005600
  -0.0000036300    0.0000000000    0.0000569100
  -0.0000013800   -0.0000000000   -0.0000546300
  -0.0002653400   -0.0000024600    0.0000024600
   0.0001725100   -0.0000005800    0.0000005800
  -0.0002653400    0.0000024600    0.0000024600
   0.0001725100    0.0000005800    0.0000005800
  -0.0002653400   -0.0000024600   -0.0000024600
   0.0001725100   -0.0000005800   -0.0000005800
  -0.0002653400    0.0000024600   -0.0000024600
   0.0001725100    0.0000005800   -0.0000005800
   0.0002348000    0.0005951800    0.0000000000
   0.0002387100   -0.0006005600   -0.0000000000
   0.0002348000   -0.0005951800   -0.0000000000
   0.0002387100    0.0006005600    0.0000000000
  -0.0000036300    0.0000569100    0.0000000000
  -0.0000013800   -0.0000546300   -0.0000000000
  -0.0000036300   -0.0000569100   -0.0000000000
  -0.0000013800    0.0000546300    0.0000000000
