# epsilon and Z* of atoms 1 5
  19.48042100    0.00000000    0.00000000    0.00000000   19.48042100    0.00000000    0.00000000    0.00000000   19.48042100 
   4.85964000    0.00000000    0.00000000    0.00000000    4.85964000    0.00000000    0.00000000    0.00000000    4.85964000 
  -4.85964000    0.00000000    0.00000000    0.00000000   -4.85964000    0.00000000    0.00000000    0.00000000   -4.85964000 
