# epsilon and Z* of atoms 1 3
   6.03348461    0.00000000    0.00000000    0.00000000    6.03348461    0.00000000    0.00000000    0.00000000    6.22275663 
   2.69759293    0.00000000   -0.00000000    0.00000000    2.69759293    0.00000000    0.00000000    0.00000000    2.83702767 
  -2.69759293    0.00000000    0.00000000    0.00000000   -2.69759293    0.00000000    0.00000000    0.00000000   -2.83702767 
