72   
4    

1    
  0.0067806732828130   0.0000000000000000   0.0073499979477376
  -0.1247468400    0.0010297300   -0.1318624700
   0.0140611200   -0.0006030500   -0.0035878100
   0.0173512600   -0.0053157400   -0.0066652500
   0.0027691800   -0.0071127200   -0.0035497000
  -0.0040277100    0.0070501200   -0.0066808700
   0.0029198700   -0.0000219800   -0.0020769000
   0.0010489500   -0.0088742400   -0.0020155300
   0.0029272100   -0.0000256900   -0.0020831200
  -0.0023191200    0.0146935900   -0.0082238000
   0.0004357900   -0.0000229600    0.0078065900
   0.0007121000    0.0003824500    0.0009094500
  -0.0009651400    0.0010304700    0.0024532900
  -0.0010950500    0.0000621600    0.0014836000
   0.0010068700    0.0006144800    0.0018787500
   0.0003066800   -0.0000247200    0.0011254400
  -0.0002547900   -0.0007453600    0.0007100800
   0.0003059700   -0.0000265400    0.0011272500
   0.0001670700   -0.0014881900    0.0026496600
  -0.0081853900    0.0043958200   -0.0040531900
   0.0025044500    0.0002478800    0.0009953200
   0.0068997200    0.0043584800    0.0200493000
  -0.0006110900   -0.0086944400    0.0080195200
  -0.0005389500    0.0010117700   -0.0003216000
   0.0008403100   -0.0017558500    0.0022068500
   0.0008778100   -0.0009162400   -0.0000921500
   0.0012654000    0.0007390000    0.0020834900
  -0.0022467600    0.0008191300    0.0009467800
   0.0125455800   -0.0076087200    0.0151441000
   0.0025149800   -0.0013496000    0.0009896700
  -0.0137310300   -0.0075376600    0.0010088100
  -0.0006548000    0.0151957200    0.0080511700
   0.0015326400    0.0022147300    0.0015883200
  -0.0012147400   -0.0005649900    0.0003107600
   0.0022567000   -0.0001268000    0.0011688500
  -0.0001111600    0.0015392900    0.0008076600
  -0.0022489200   -0.0015633300    0.0009469100
   0.0029902300   -0.0000296800   -0.0068924700
  -0.0009950300   -0.0010111200    0.0010837800
  -0.0020135300    0.0006093400   -0.0038581400
   0.0002616800    0.0010121000   -0.0008994300
   0.0004701600   -0.0000047200   -0.0018746000
  -0.0002514000   -0.0000270300   -0.0008496600
   0.0009784300    0.0013939100    0.0015729200
  -0.0007994200   -0.0000248800   -0.0009502400
   0.0001670800   -0.0021473800   -0.0043459100
   0.0106634500   -0.0000203900    0.0597040700
  -0.0048209800    0.0002729500   -0.0010174700
   0.0008706600    0.0011045900    0.0039068800
   0.0010989500   -0.0017894400    0.0015223500
  -0.0005012100   -0.0039011700    0.0013814500
  -0.0004121200   -0.0000268900    0.0006585600
  -0.0016049400    0.0037306900   -0.0009462200
  -0.0009207700   -0.0000217900    0.0006952400
   0.0024775500    0.0004321400    0.0038422200
   0.0267705200   -0.0099948400    0.0037450800
  -0.0056895600    0.0005324800    0.0008079900
   0.0529799500    0.0250186200    0.0288122500
   0.0095612800   -0.0159597600    0.0166228100
  -0.0005586200   -0.0018178600    0.0010753800
  -0.0031177400    0.0033398600    0.0007483600
  -0.0018178500    0.0022613700    0.0005183800
  -0.0009478900   -0.0027167600    0.0010887300
   0.0026336400   -0.0014525300    0.0009115600
  -0.0008840300    0.0003738300   -0.0044229500
  -0.0008818100    0.0000618500   -0.0010132500
   0.0024076400    0.0015770700   -0.0054395500
  -0.0002805700   -0.0018759500   -0.0049302700
  -0.0003353300   -0.0006609600   -0.0009404400
   0.0003488800    0.0003098500   -0.0007180500
  -0.0005260900    0.0002332800   -0.0008722700
  -0.0004664600   -0.0002117900   -0.0011467300
   0.0008470900    0.0004250200   -0.0008295500

1    
 -0.0067806732828130   0.0000000000000000  -0.0073499979477376
   0.1279764200    0.0010674100    0.1300277700
  -0.0138903100    0.0005296000    0.0036611600
  -0.0173733100    0.0052258400    0.0068272800
  -0.0026218700    0.0070760200    0.0037181600
   0.0040730800   -0.0071053900    0.0067961300
  -0.0028455300   -0.0000197500    0.0022368100
  -0.0009553100    0.0088492300    0.0021248200
  -0.0028410600   -0.0000294400    0.0022259500
   0.0023967200   -0.0147395200    0.0083722200
  -0.0003560900   -0.0000163800   -0.0077017900
  -0.0006264200   -0.0004227400   -0.0007356200
   0.0010531300   -0.0010737000   -0.0022868700
   0.0011874800   -0.0001105500   -0.0013151900
  -0.0009232600   -0.0006586600   -0.0017052800
  -0.0002247200   -0.0000285400   -0.0009616700
   0.0003465300    0.0006939200   -0.0005422800
  -0.0002154600   -0.0000339700   -0.0009543000
  -0.0000908300    0.0014332500   -0.0024822900
   0.0081358800   -0.0043420900    0.0042808000
  -0.0025937100   -0.0002112200   -0.0008169500
  -0.0071529900   -0.0044399500   -0.0200540000
   0.0005749900    0.0088486300   -0.0078665500
   0.0004375800   -0.0009620000    0.0004814100
  -0.0009280300    0.0018157800   -0.0020585400
  -0.0009517200    0.0009635400    0.0002755400
  -0.0013601300   -0.0006948600   -0.0019056500
   0.0021590600   -0.0007724700   -0.0007821100
  -0.0125721700    0.0075792000   -0.0147443300
  -0.0025828100    0.0013716500   -0.0008180600
   0.0136542100    0.0075892100   -0.0008575700
   0.0005298900   -0.0151104700   -0.0078225800
  -0.0016142400   -0.0021412300   -0.0014000000
   0.0011417200    0.0006229900   -0.0001399000
  -0.0023245900    0.0001633900   -0.0009997700
   0.0000159000   -0.0014826900   -0.0006314100
   0.0021554700    0.0016086800   -0.0007765800
  -0.0029200300   -0.0000424900    0.0067795900
   0.0010922300    0.0009771900   -0.0012550700
   0.0021135000   -0.0006483600    0.0036910400
  -0.0001943200   -0.0010650900    0.0007288500
  -0.0003571100   -0.0000722500    0.0017125700
   0.0003454200   -0.0000299500    0.0006976400
  -0.0008985700   -0.0014528200   -0.0017471600
   0.0008717800   -0.0000141300    0.0007667800
  -0.0000436400    0.0021156000    0.0041702200
  -0.0108807600   -0.0000280500   -0.0570087600
   0.0048799800   -0.0003281600    0.0008412100
  -0.0007801200   -0.0011587800   -0.0040843700
  -0.0010098200    0.0017316800   -0.0016676300
   0.0005879800    0.0038137200   -0.0015620900
   0.0005047500   -0.0000215700   -0.0008278100
   0.0016729400   -0.0037552700    0.0007913200
   0.0009970100   -0.0000087400   -0.0008435500
  -0.0023575100   -0.0004630000   -0.0040056000
  -0.0268138300    0.0098989600   -0.0041196500
   0.0055899200   -0.0004524800   -0.0009471600
  -0.0559473500   -0.0268240700   -0.0298404200
  -0.0095542100    0.0159561000   -0.0166259400
   0.0004781000    0.0018785100   -0.0012328800
   0.0030274200   -0.0033184400   -0.0009158000
   0.0017075500   -0.0022019900   -0.0006838100
   0.0008692400    0.0027409400   -0.0012346700
  -0.0027220300    0.0015011800   -0.0010660600
   0.0007963400   -0.0003470100    0.0042659900
   0.0007865900   -0.0000032400    0.0008352200
  -0.0024987100   -0.0015371300    0.0052956500
   0.0001837900    0.0019253800    0.0047761900
   0.0002566400    0.0006957500    0.0007695800
  -0.0004468000   -0.0002666500    0.0005500900
   0.0004231000   -0.0001672500    0.0007014700
   0.0003771700    0.0002822700    0.0009730900
  -0.0009301700   -0.0003530800    0.0006531600

37   
  0.0067806732828130   0.0000000000000000   0.0073499979477376
   0.0030156000   -0.0000264900   -0.0067695300
  -0.0041962900   -0.0027610500   -0.0016930700
   0.0011569200   -0.0016033900   -0.0007475600
   0.0037748800   -0.0008712500   -0.0008373600
  -0.0026337100   -0.0016522700   -0.0015982700
  -0.0008037700   -0.0000227500   -0.0007813000
   0.0008942600    0.0052757500   -0.0013115300
  -0.0002559600   -0.0000244100   -0.0006888000
  -0.0001650900    0.0014672700   -0.0011275200
   0.0110258100   -0.0000361400    0.0569758800
   0.0006982800    0.0011777200    0.0042218800
  -0.0046230700    0.0016868200   -0.0010146300
  -0.0021575100    0.0025223000   -0.0002831400
   0.0030299100    0.0005911800    0.0034724100
  -0.0009238800   -0.0000266200    0.0008433500
   0.0003686600   -0.0013361700    0.0023348000
  -0.0004109600   -0.0000283600    0.0008136400
   0.0002187200   -0.0047800400    0.0008552800
   0.0558129100   -0.0268237900    0.0298688900
  -0.0056880600   -0.0003298300    0.0009598200
   0.0267996500    0.0099121600    0.0040694200
   0.0094944100    0.0159050100    0.0166179500
  -0.0020209300   -0.0026719600   -0.0001121600
  -0.0016774900    0.0025056100    0.0022456300
  -0.0010612100    0.0026948000    0.0013692500
  -0.0016931000   -0.0022803900    0.0005621800
   0.0026324900    0.0002214200    0.0010696600
   0.0002112500   -0.0002576000   -0.0032657200
  -0.0008779400    0.0001935100   -0.0008520600
   0.0013098400    0.0009396800   -0.0062901200
  -0.0002770300   -0.0006099700   -0.0047819900
   0.0001271800   -0.0003907400   -0.0003496400
  -0.0001105700    0.0005794000   -0.0009861300
  -0.0006393200    0.0001600500   -0.0008241000
  -0.0003475600   -0.0002831400   -0.0008755800
   0.0008482700   -0.0001142800   -0.0006710600
  -0.1258986300    0.0011165200   -0.1326055400
   0.0111787200   -0.0005417300   -0.0018421000
   0.0122962300    0.0007465400   -0.0029134700
   0.0018459900   -0.0070940900   -0.0027342400
   0.0014387000    0.0058613300   -0.0020138300
   0.0009386800   -0.0000270000   -0.0006828000
   0.0012291900   -0.0047525300   -0.0022019000
   0.0009307600   -0.0000254500   -0.0006891400
   0.0020488000    0.0056149100   -0.0025552600
  -0.0009638300   -0.0000299300    0.0033048900
   0.0007780000    0.0003606500    0.0022090100
   0.0006207600   -0.0002605100    0.0023369200
  -0.0002681700   -0.0001814100    0.0022491000
  -0.0000495500    0.0001841700    0.0023009400
   0.0003042700   -0.0000272700    0.0005469900
  -0.0001880400   -0.0009358400    0.0021847600
   0.0003011500   -0.0000205200    0.0005511500
  -0.0001257600    0.0006773500    0.0023636600
   0.0061679000   -0.0046557800    0.0109136600
   0.0014129700    0.0003206200   -0.0002074000
  -0.0046717400   -0.0015552100    0.0029047200
  -0.0019378800    0.0062786200    0.0068885000
   0.0010530100    0.0010574700    0.0005685500
  -0.0004516600   -0.0001463900   -0.0006413200
   0.0000255500   -0.0007724600   -0.0004112600
   0.0005361800    0.0005342600   -0.0000069100
  -0.0007437100   -0.0008387100   -0.0000355000
  -0.0035279000    0.0009582700    0.0018814500
   0.0014051500   -0.0002280400   -0.0002148300
   0.0049455500    0.0039671900    0.0117791500
  -0.0018992400   -0.0048779000    0.0068582700
  -0.0003550100    0.0002454700   -0.0007207300
   0.0009491800   -0.0009515900    0.0006653700
   0.0004955300   -0.0004938900    0.0000231000
   0.0000641400    0.0008054800   -0.0004423600
  -0.0007408500    0.0007853800   -0.0000303500

37   
 -0.0067806732828130   0.0000000000000000  -0.0073499979477376
  -0.0028906300   -0.0000284700    0.0069006000
   0.0042700900    0.0026993000    0.0018514800
  -0.0010956500    0.0015622600    0.0009127200
  -0.0036914300    0.0008334100    0.0010058000
   0.0027318700    0.0016088300    0.0017612900
   0.0008846700   -0.0000241800    0.0009445800
  -0.0008017600   -0.0053043900    0.0014751900
   0.0003375500   -0.0000214400    0.0008502400
   0.0002529100   -0.0015433800    0.0012922000
  -0.0105219600   -0.0000395500   -0.0597104600
  -0.0006111200   -0.0012224900   -0.0040587900
   0.0047441700   -0.0017453100    0.0011660000
   0.0022504300   -0.0025882000    0.0004212300
  -0.0029442900   -0.0006366000   -0.0033330100
   0.0010073200   -0.0000246900   -0.0006941000
  -0.0002868900    0.0012916200   -0.0021896200
   0.0005024900   -0.0000217900   -0.0006618900
  -0.0001364500    0.0047576000   -0.0007189600
  -0.0529789000    0.0249491100   -0.0289015600
   0.0055913400    0.0003825500   -0.0007963900
  -0.0269147000   -0.0100554500   -0.0036676000
  -0.0096363100   -0.0158742600   -0.0166320900
   0.0019314000    0.0026985800    0.0002721800
   0.0015718800   -0.0024666800   -0.0020865900
   0.0009920700   -0.0026262000   -0.0011874800
   0.0015954800    0.0023364800   -0.0003960500
  -0.0027218400   -0.0001796900   -0.0009058700
  -0.0002962000    0.0003070700    0.0034126700
   0.0007921100   -0.0001458300    0.0010091400
  -0.0014020200   -0.0008975900    0.0064736900
   0.0001936800    0.0006589600    0.0049385400
  -0.0002124900    0.0004381600    0.0005097200
   0.0000246500   -0.0005298800    0.0011459800
   0.0005541900   -0.0001109200    0.0009793800
   0.0002601300    0.0003342300    0.0010368400
  -0.0009326900    0.0001631500    0.0008275300
   0.1226452100    0.0010843300    0.1345503000
  -0.0109741000    0.0005101900    0.0016484200
  -0.0122550500   -0.0007788400    0.0027862900
  -0.0017278800    0.0069995500    0.0025979400
  -0.0013517400   -0.0059101200    0.0018420200
  -0.0008416200   -0.0000224800    0.0005261000
  -0.0011491500    0.0046808100    0.0020284100
  -0.0008442100   -0.0000305300    0.0005263500
  -0.0019423100   -0.0056711000    0.0024096100
   0.0010486700   -0.0000236200   -0.0034687200
  -0.0006797900   -0.0004128300   -0.0023544400
  -0.0005303100    0.0002084800   -0.0025077600
   0.0003543800    0.0001292400   -0.0024007800
   0.0001411200   -0.0002345600   -0.0024600100
  -0.0002098300   -0.0000248200   -0.0007036300
   0.0002763500    0.0008788800   -0.0023259900
  -0.0002097900   -0.0000271400   -0.0007027100
   0.0002192100   -0.0007271000   -0.0025363400
  -0.0061884800    0.0046335400   -0.0108782000
  -0.0014929600   -0.0002659200    0.0000485000
   0.0045845100    0.0016340200   -0.0031221500
   0.0017973600   -0.0061962600   -0.0070193000
  -0.0011389000   -0.0010033800   -0.0007361100
   0.0003660300    0.0001920200    0.0004721700
  -0.0001201400    0.0008171200    0.0002452100
  -0.0006230100   -0.0004799400   -0.0001546800
   0.0006506800    0.0008915500   -0.0001323500
   0.0034632800   -0.0009186500   -0.0020506200
  -0.0014978600    0.0002770700    0.0000477900
  -0.0051489900   -0.0040105200   -0.0120940600
   0.0018341500    0.0049925000   -0.0070476200
   0.0002675900   -0.0001943200    0.0005638300
  -0.0010431500    0.0010065200   -0.0008197400
  -0.0005894800    0.0005472600   -0.0001783800
  -0.0001545800   -0.0007523600    0.0002824100
   0.0006516500   -0.0007329200   -0.0001283100
