# epsilon and Z* of atoms 1 3
   4.47094750    0.00000000    0.00000000    0.00000000    4.47094750    0.00000000    0.00000000    0.00000000    4.68648200 
   2.51997875   -0.00000000    0.00000000    0.00000000    2.51997875    0.00000000    0.00000000    0.00000000    2.67874500 
  -2.51997875   -0.00000000   -0.00000000    0.00000000   -2.51997875    0.00000000    0.00000000    0.00000000   -2.67874500 
