72   
4    

1    
  0.0068305257589309   0.0000000000000000   0.0073036920702191
  -0.1408702400    0.0010588000   -0.1388436900
   0.0161492900   -0.0003974100   -0.0040158500
   0.0190511300   -0.0048294600   -0.0066401600
   0.0025586400   -0.0081695800   -0.0039091000
  -0.0034265200    0.0082183000   -0.0067122100
   0.0033054100    0.0000450500   -0.0020720000
   0.0010296400   -0.0101099200   -0.0026172700
   0.0033004900   -0.0000789100   -0.0020765100
  -0.0018932200    0.0151498800   -0.0080444500
   0.0002410100   -0.0000319300    0.0101287900
   0.0006494000    0.0003178200    0.0012140500
  -0.0005935100    0.0008361700    0.0024656500
  -0.0009306500   -0.0000537900    0.0016452500
   0.0007395100    0.0005989600    0.0020387900
   0.0003853400    0.0000369300    0.0009868900
  -0.0003065400   -0.0007339300    0.0010030700
   0.0003782400   -0.0000795200    0.0009939000
   0.0001239900   -0.0011038400    0.0026469700
  -0.0098992200    0.0050606800   -0.0047209200
   0.0031149200    0.0004389900    0.0005864500
   0.0091656700    0.0059669800    0.0215786500
  -0.0011483100   -0.0110437000    0.0084542400
  -0.0006095400    0.0011121800   -0.0010405700
   0.0012875400   -0.0022678000    0.0023518400
   0.0008584000   -0.0012188500   -0.0004567000
   0.0015894800    0.0009640500    0.0016205600
  -0.0025864000    0.0011811400    0.0006475700
   0.0138016400   -0.0086688400    0.0175245300
   0.0031364100   -0.0012176000    0.0005853200
  -0.0144226300   -0.0076320600   -0.0005468800
  -0.0012064700    0.0162682000    0.0084709200
   0.0022111900    0.0027493400    0.0016031500
  -0.0015086100   -0.0006511400   -0.0002607000
   0.0022874200   -0.0004035900    0.0008733800
   0.0001672600    0.0018012100    0.0002818600
  -0.0025931900   -0.0020570700    0.0006477700
   0.0040049800   -0.0000510500   -0.0104287200
  -0.0013151700   -0.0014179300    0.0015458100
  -0.0024366100    0.0003185400   -0.0044028200
   0.0004823300    0.0018729000   -0.0007719900
   0.0003601000    0.0004279700   -0.0017674800
  -0.0003987100    0.0004614500   -0.0007762400
   0.0013614500    0.0013446800    0.0022297000
  -0.0010493100   -0.0003804700   -0.0006611200
  -0.0000657000   -0.0027859100   -0.0047175700
   0.0157308700   -0.0000397800    0.0547388800
  -0.0068348500    0.0000297000   -0.0016969800
   0.0008800700    0.0014435500    0.0048825700
   0.0015167900   -0.0018486500    0.0021501600
  -0.0007996900   -0.0047938400    0.0013756300
  -0.0006416900    0.0004555800    0.0007820300
  -0.0020205800    0.0049687400   -0.0011139200
  -0.0011956600   -0.0003764600    0.0009816400
   0.0031756400   -0.0000478500    0.0046934700
   0.0300749300   -0.0089895100    0.0097327100
  -0.0061479300    0.0009460500    0.0013300500
   0.0522633200    0.0216826900    0.0310648800
   0.0146109600   -0.0141637100    0.0205534400
  -0.0010519800   -0.0027073200    0.0019961100
  -0.0044160300    0.0039689200    0.0011771800
  -0.0022991400    0.0027287100    0.0008496900
  -0.0004890000   -0.0027644500    0.0014809900
   0.0030491500   -0.0015488000    0.0016039500
  -0.0009352700    0.0003826500   -0.0050903100
  -0.0012015500    0.0004205400   -0.0011043400
   0.0027267900    0.0017298200   -0.0059919800
  -0.0002778200   -0.0025541300   -0.0057306500
  -0.0000857000   -0.0010045300   -0.0011236800
   0.0000330600    0.0002624700   -0.0007516200
  -0.0010616900    0.0005933700   -0.0011126800
  -0.0001502900   -0.0000947000   -0.0014092300
   0.0010669700    0.0004750400   -0.0009101400

1    
 -0.0068305257589309   0.0000000000000000  -0.0073036920702191
   0.1440168000    0.0010837200    0.1365545700
  -0.0160835700    0.0002449900    0.0036549800
  -0.0189294900    0.0046589500    0.0063970700
  -0.0023080900    0.0081760500    0.0036844400
   0.0033545800   -0.0082130800    0.0064025500
  -0.0032275700    0.0000451200    0.0018188100
  -0.0009705500    0.0101179700    0.0022921500
  -0.0032163800   -0.0000789200    0.0018152800
   0.0020051900   -0.0151204200    0.0077533300
  -0.0001690800   -0.0000310000   -0.0104918900
  -0.0006673300   -0.0004253700   -0.0014466400
   0.0007835000   -0.0009398400   -0.0027134600
   0.0011086200    0.0000649300   -0.0018871600
  -0.0007508500   -0.0005923400   -0.0022693800
  -0.0002975700    0.0000370700   -0.0012311900
   0.0003837700    0.0006887000   -0.0012699600
  -0.0003007600   -0.0000793600   -0.0012264600
  -0.0000216900    0.0010668500   -0.0029194800
   0.0098497200   -0.0050311700    0.0045613500
  -0.0032061600   -0.0002917000   -0.0008019400
  -0.0094201500   -0.0060732300   -0.0219969500
   0.0011190700    0.0110891700   -0.0086923400
   0.0006089600   -0.0011247800    0.0008018000
  -0.0014716700    0.0022667200   -0.0026024600
  -0.0010418200    0.0013326500    0.0002341400
  -0.0015777000   -0.0008565700   -0.0018460500
   0.0025061100   -0.0011155000   -0.0009095500
  -0.0138585500    0.0086125700   -0.0175622000
  -0.0031950400    0.0013509600   -0.0008252600
   0.0144111800    0.0077053800    0.0002095200
   0.0010636500   -0.0163459000   -0.0086925600
  -0.0021893000   -0.0027336900   -0.0018310000
   0.0013483400    0.0006448500    0.0000201900
  -0.0024731800    0.0005018700   -0.0011265200
  -0.0001460200   -0.0016743700   -0.0005386300
   0.0025055000    0.0021315000   -0.0009289000
  -0.0039633700   -0.0000499700    0.0109289600
   0.0005644500    0.0008887200   -0.0015510900
   0.0033820200   -0.0008354700    0.0044198600
   0.0002076900   -0.0015753900    0.0011056300
  -0.0008837400   -0.0001133400    0.0020829000
   0.0004877100    0.0004619100    0.0007994700
  -0.0013348900   -0.0013653700   -0.0018581800
   0.0011338800   -0.0003789900    0.0009875700
   0.0002081100    0.0027603900    0.0050911200
  -0.0158699500   -0.0000516100   -0.0514702800
   0.0060486500   -0.0005603600    0.0017116100
   0.0000362100   -0.0019733400   -0.0048640400
  -0.0008271400    0.0021633600   -0.0017866700
   0.0002667900    0.0050884200   -0.0010339200
   0.0007351100    0.0004641800   -0.0007592500
   0.0020622000   -0.0049799800    0.0015245700
   0.0012743500   -0.0003741300   -0.0006237000
  -0.0030580200    0.0000116400   -0.0042950900
  -0.0300057900    0.0088006000   -0.0095735900
   0.0060511500   -0.0001675300   -0.0009749700
  -0.0553094200   -0.0235370300   -0.0315839400
  -0.0146569500    0.0132266400   -0.0204174100
   0.0016054900    0.0023994400   -0.0016405700
   0.0037262900   -0.0042988900   -0.0008358000
   0.0013599300   -0.0022034500   -0.0008311100
   0.0012419500    0.0032770500   -0.0014496400
  -0.0031351900    0.0016180200   -0.0012173300
   0.0008327500   -0.0003711700    0.0055356200
   0.0011146900    0.0003370200    0.0014499500
  -0.0027963400   -0.0017244900    0.0064440300
   0.0001841300    0.0016540500    0.0058019400
   0.0006236200    0.0006880500    0.0014784700
  -0.0007305900   -0.0005771700    0.0011136900
   0.0001323100   -0.0000533000    0.0011435700
   0.0009005300    0.0006357700    0.0014412000
  -0.0011511000   -0.0003771100    0.0013162300

37   
  0.0068305257589309   0.0000000000000000   0.0073036920702191
   0.0040619600   -0.0000360600   -0.0108644500
  -0.0051379700   -0.0031196700   -0.0025073300
   0.0013507700   -0.0018906900   -0.0006610100
   0.0044147600   -0.0009375800   -0.0008800200
  -0.0031115300   -0.0021354700   -0.0022718900
  -0.0010499000    0.0000360500   -0.0009775800
   0.0009487600    0.0061855400   -0.0018199900
  -0.0004051000   -0.0000736400   -0.0009346400
  -0.0000883800    0.0017623600   -0.0013648400
   0.0160201700   -0.0000400200    0.0515542200
   0.0005130300    0.0010538800    0.0046774100
  -0.0064036700    0.0019599300   -0.0017543700
  -0.0024799100    0.0035945500   -0.0009619400
   0.0036493300    0.0009368700    0.0038682100
  -0.0011911800    0.0000358700    0.0006646900
   0.0007620500   -0.0012207300    0.0022408800
  -0.0006403300   -0.0000747000    0.0006393800
  -0.0000349000   -0.0064569400    0.0006354900
   0.0549565000   -0.0234080800    0.0318218900
  -0.0061644400   -0.0003031300    0.0010114400
   0.0302197500    0.0089641100    0.0093842500
   0.0145635800    0.0133268400    0.0202614400
  -0.0031320600   -0.0036174300   -0.0000121300
  -0.0023663500    0.0030856700    0.0025563200
  -0.0011035300    0.0030111100    0.0014629000
  -0.0016792700   -0.0025043800    0.0005570200
   0.0030606500    0.0005295900    0.0012558200
   0.0004038700   -0.0003759600   -0.0042170700
  -0.0011969400    0.0002632900   -0.0013946100
   0.0013907100    0.0009769100   -0.0076050100
  -0.0002719300   -0.0006013100   -0.0059005000
   0.0002192800   -0.0005241300   -0.0008901000
  -0.0002688000    0.0007418200   -0.0015782800
  -0.0008141300    0.0003066600   -0.0013686800
  -0.0003894000   -0.0003804200   -0.0014325300
   0.0010724400   -0.0001936300   -0.0012518700
  -0.1397647600    0.0011232100   -0.1397964900
   0.0122796900   -0.0013148000   -0.0024542100
   0.0146938500    0.0008017800   -0.0039566300
   0.0022880300   -0.0084961600   -0.0034289800
   0.0008390600    0.0073656400   -0.0026646500
   0.0011886300    0.0004661700   -0.0008467100
   0.0011146000   -0.0051268200   -0.0026512800
   0.0011827800   -0.0003872900   -0.0006844000
   0.0020207600    0.0065207800   -0.0033997200
  -0.0014251000   -0.0000380600    0.0046543700
   0.0007074700    0.0003454800    0.0027995600
   0.0012175700   -0.0005228900    0.0030785000
  -0.0001616100   -0.0000470300    0.0030346800
  -0.0003165500    0.0004560400    0.0031625500
   0.0004047100    0.0004647200    0.0009414500
  -0.0003294300   -0.0013732600    0.0029234600
   0.0003977600   -0.0003793700    0.0011074800
  -0.0001396400    0.0008803900    0.0033347000
   0.0088338300   -0.0068521900    0.0139186100
   0.0020806700    0.0007986900   -0.0000452700
  -0.0067504400   -0.0021537400    0.0037648400
  -0.0030153000    0.0085565100    0.0086446400
   0.0018504700    0.0012916600    0.0011339900
  -0.0007863000   -0.0004392400   -0.0006347100
  -0.0003574000   -0.0008967300   -0.0004618400
   0.0012055500    0.0010143500    0.0000428100
  -0.0009653400   -0.0011198700    0.0002630900
  -0.0043481800    0.0007957900    0.0015254300
   0.0020612100    0.0000670800   -0.0000714300
   0.0063511800    0.0053584400    0.0159762800
  -0.0029588400   -0.0066184000    0.0085888700
  -0.0001185800    0.0001549900   -0.0007201900
   0.0011601000   -0.0015554200    0.0011739800
   0.0002694900   -0.0005248400    0.0001123800
   0.0005706000    0.0013661000   -0.0005584400
  -0.0009584600    0.0011412200    0.0002507300

37   
 -0.0068305257589309   0.0000000000000000  -0.0073036920702191
  -0.0039172400   -0.0000353400    0.0105065400
   0.0050954900    0.0029954600    0.0022286200
  -0.0011863600    0.0017928900    0.0003951500
  -0.0042341500    0.0009521300    0.0006269800
   0.0031099900    0.0021339600    0.0020128300
   0.0011265300    0.0000349800    0.0007117300
  -0.0008668100   -0.0061907200    0.0015274500
   0.0004801600   -0.0000730200    0.0006736100
   0.0001956600   -0.0018193700    0.0010802900
  -0.0155601100   -0.0000390300   -0.0547129200
  -0.0005243900   -0.0011594800   -0.0049359600
   0.0066424700   -0.0020724300    0.0014821200
   0.0026635200   -0.0036143000    0.0006803600
  -0.0036594000   -0.0009286600   -0.0041493100
   0.0012784200    0.0000367800   -0.0009428700
  -0.0006960100    0.0011820500   -0.0025444900
   0.0007277600   -0.0000750000   -0.0009085100
   0.0001419900    0.0064585700   -0.0009564400
  -0.0520957400    0.0215079500   -0.0313232700
   0.0060664600    0.0004642800   -0.0012674600
  -0.0304342200   -0.0091586600   -0.0093710400
  -0.0147077300   -0.0134379000   -0.0206864200
   0.0031236900    0.0035752800   -0.0002440200
   0.0021638200   -0.0031097000   -0.0028200700
   0.0009299700   -0.0028780300   -0.0017140000
   0.0016852100    0.0026167100   -0.0008247100
  -0.0031442800   -0.0004664100   -0.0015500600
  -0.0005033000    0.0004158100    0.0039006900
   0.0011130100   -0.0001030400    0.0011409900
  -0.0014661400   -0.0009404600    0.0073417800
   0.0001918200    0.0005244100    0.0056323000
  -0.0002105000    0.0005150400    0.0006289900
   0.0000915400   -0.0007531100    0.0013244500
   0.0006235800   -0.0001973700    0.0011019100
   0.0004141800    0.0004891700    0.0011682500
  -0.0011570300    0.0002624600    0.0009600500
   0.1365951900    0.0010800800    0.1420854500
  -0.0129243200    0.0007662300    0.0024640000
  -0.0138366000   -0.0013111300    0.0040645600
  -0.0015728200    0.0087979300    0.0038350500
  -0.0013873100   -0.0070264800    0.0030195400
  -0.0011055700    0.0004662000    0.0009001800
  -0.0010875400    0.0050985700    0.0030653000
  -0.0011095300   -0.0003881100    0.0010610500
  -0.0018714700   -0.0065665700    0.0038362900
   0.0015058800   -0.0000389200   -0.0042511500
  -0.0014414400   -0.0008878300   -0.0027466500
  -0.0002973300    0.0000116000   -0.0030644900
   0.0008595500    0.0003496200   -0.0026760700
  -0.0002160700   -0.0001385100   -0.0028153800
  -0.0003143700    0.0004638100   -0.0009063700
   0.0003749400    0.0013413800   -0.0024919300
  -0.0003194400   -0.0003788400   -0.0007415800
   0.0002739300   -0.0009349500   -0.0029435600
  -0.0088277600    0.0067396500   -0.0132851400
  -0.0021498200   -0.0000442800    0.0004157100
   0.0066758900    0.0021970100   -0.0033900100
   0.0028619800   -0.0093896200   -0.0085362400
  -0.0012949900   -0.0015901500   -0.0007542900
   0.0000992600    0.0001203300    0.0010111300
  -0.0005693000    0.0014250700    0.0004972900
  -0.0004574900   -0.0004668600    0.0000046500
   0.0008831800    0.0012081900    0.0001483600
   0.0042627100   -0.0007780700   -0.0010871900
  -0.0021680300    0.0006860400    0.0004229800
  -0.0065024400   -0.0054560400   -0.0157338600
   0.0029222200    0.0057713300   -0.0085685200
   0.0006497500   -0.0004709500    0.0010900600
  -0.0018671100    0.0012521300   -0.0008080900
  -0.0011990000    0.0010708200   -0.0000720600
   0.0001703100   -0.0008399000    0.0006143900
   0.0008831000   -0.0010446700    0.0001630700
