phonopy:
  version: 1.13.2
  configuration:

supercell_matrix:
- [   3,   0,   0 ]
- [   0,   3,   0 ]
- [   0,   0,   2 ]

space_group:
  type: "P6_3mc"
  number: 186
  Hall_symbol: "P 6c -2c"

primitive_cell:
  lattice:
  - [     3.127624583913321,     0.000000000000000,     0.000000000000000 ] # a
  - [    -1.563812291956661,     2.708602656904420,     0.000000000000000 ] # b
  - [     0.000000000000000,     0.000000000000000,     5.016423554720393 ] # c
  points:
  - symbol: Al # 1
    coordinates: [  0.333333000000003,  0.666666999999997,  0.999275396851101 ]
    mass: 26.981539
  - symbol: Al # 2
    coordinates: [  0.666666999999997,  0.333333000000003,  0.499275396851101 ]
    mass: 26.981539
  - symbol: N  # 3
    coordinates: [  0.333333000000003,  0.666666999999997,  0.380724603148901 ]
    mass: 14.006700
  - symbol: N  # 4
    coordinates: [  0.666666999999997,  0.333333000000003,  0.880724603148901 ]
    mass: 14.006700
  reciprocal_lattice: # without 2pi
  - [     0.319731468138285,     0.184597027816341,     0.000000000000000 ] # a*
  - [     0.000000000000000,     0.369194055632682,     0.000000000000000 ] # b*
  - [     0.000000000000000,     0.000000000000000,     0.199345208611624 ] # c*

unit_cell:
  lattice:
  - [     3.127624583913322,     0.000000000000000,     0.000000000000000 ] # a
  - [    -1.563812291956661,     2.708602656904420,     0.000000000000000 ] # b
  - [    -0.000000000000000,     0.000000000000000,     5.016423554720393 ] # c
  points:
  - symbol: Al # 1
    coordinates: [  0.333333000000003,  0.666666999999997,  0.999275396851101 ]
    mass: 26.981539
    reduced_to: 1
  - symbol: Al # 2
    coordinates: [  0.666666999999997,  0.333333000000003,  0.499275396851101 ]
    mass: 26.981539
    reduced_to: 2
  - symbol: N  # 3
    coordinates: [  0.333333000000003,  0.666666999999997,  0.380724603148901 ]
    mass: 14.006700
    reduced_to: 3
  - symbol: N  # 4
    coordinates: [  0.666666999999997,  0.333333000000003,  0.880724603148901 ]
    mass: 14.006700
    reduced_to: 4

supercell:
  lattice:
  - [     9.382873751739965,     0.000000000000000,     0.000000000000000 ] # a
  - [    -4.691436875869982,     8.125807970713259,     0.000000000000000 ] # b
  - [     0.000000000000000,     0.000000000000000,    10.032847109440786 ] # c
  points:
  - symbol: Al # 1
    coordinates: [  0.111111000000001,  0.222222333333332,  0.499637698425551 ]
    mass: 26.981539
    reduced_to: 1
  - symbol: Al # 2
    coordinates: [  0.444444333333334,  0.222222333333332,  0.499637698425551 ]
    mass: 26.981539
    reduced_to: 1
  - symbol: Al # 3
    coordinates: [  0.777777666666668,  0.222222333333332,  0.499637698425551 ]
    mass: 26.981539
    reduced_to: 1
  - symbol: Al # 4
    coordinates: [  0.111111000000001,  0.555555666666666,  0.499637698425551 ]
    mass: 26.981539
    reduced_to: 1
  - symbol: Al # 5
    coordinates: [  0.444444333333334,  0.555555666666666,  0.499637698425551 ]
    mass: 26.981539
    reduced_to: 1
  - symbol: Al # 6
    coordinates: [  0.777777666666668,  0.555555666666666,  0.499637698425551 ]
    mass: 26.981539
    reduced_to: 1
  - symbol: Al # 7
    coordinates: [  0.111111000000001,  0.888888999999999,  0.499637698425551 ]
    mass: 26.981539
    reduced_to: 1
  - symbol: Al # 8
    coordinates: [  0.444444333333334,  0.888888999999999,  0.499637698425551 ]
    mass: 26.981539
    reduced_to: 1
  - symbol: Al # 9
    coordinates: [  0.777777666666668,  0.888888999999999,  0.499637698425551 ]
    mass: 26.981539
    reduced_to: 1
  - symbol: Al # 10
    coordinates: [  0.111111000000001,  0.222222333333332,  0.999637698425551 ]
    mass: 26.981539
    reduced_to: 1
  - symbol: Al # 11
    coordinates: [  0.444444333333334,  0.222222333333332,  0.999637698425551 ]
    mass: 26.981539
    reduced_to: 1
  - symbol: Al # 12
    coordinates: [  0.777777666666668,  0.222222333333332,  0.999637698425551 ]
    mass: 26.981539
    reduced_to: 1
  - symbol: Al # 13
    coordinates: [  0.111111000000001,  0.555555666666666,  0.999637698425551 ]
    mass: 26.981539
    reduced_to: 1
  - symbol: Al # 14
    coordinates: [  0.444444333333334,  0.555555666666666,  0.999637698425551 ]
    mass: 26.981539
    reduced_to: 1
  - symbol: Al # 15
    coordinates: [  0.777777666666668,  0.555555666666666,  0.999637698425551 ]
    mass: 26.981539
    reduced_to: 1
  - symbol: Al # 16
    coordinates: [  0.111111000000001,  0.888888999999999,  0.999637698425551 ]
    mass: 26.981539
    reduced_to: 1
  - symbol: Al # 17
    coordinates: [  0.444444333333334,  0.888888999999999,  0.999637698425551 ]
    mass: 26.981539
    reduced_to: 1
  - symbol: Al # 18
    coordinates: [  0.777777666666668,  0.888888999999999,  0.999637698425551 ]
    mass: 26.981539
    reduced_to: 1
  - symbol: Al # 19
    coordinates: [  0.222222333333332,  0.111111000000001,  0.249637698425551 ]
    mass: 26.981539
    reduced_to: 19
  - symbol: Al # 20
    coordinates: [  0.555555666666666,  0.111111000000001,  0.249637698425551 ]
    mass: 26.981539
    reduced_to: 19
  - symbol: Al # 21
    coordinates: [  0.888888999999999,  0.111111000000001,  0.249637698425551 ]
    mass: 26.981539
    reduced_to: 19
  - symbol: Al # 22
    coordinates: [  0.222222333333332,  0.444444333333334,  0.249637698425551 ]
    mass: 26.981539
    reduced_to: 19
  - symbol: Al # 23
    coordinates: [  0.555555666666666,  0.444444333333334,  0.249637698425551 ]
    mass: 26.981539
    reduced_to: 19
  - symbol: Al # 24
    coordinates: [  0.888888999999999,  0.444444333333334,  0.249637698425551 ]
    mass: 26.981539
    reduced_to: 19
  - symbol: Al # 25
    coordinates: [  0.222222333333332,  0.777777666666668,  0.249637698425551 ]
    mass: 26.981539
    reduced_to: 19
  - symbol: Al # 26
    coordinates: [  0.555555666666666,  0.777777666666668,  0.249637698425551 ]
    mass: 26.981539
    reduced_to: 19
  - symbol: Al # 27
    coordinates: [  0.888888999999999,  0.777777666666668,  0.249637698425551 ]
    mass: 26.981539
    reduced_to: 19
  - symbol: Al # 28
    coordinates: [  0.222222333333332,  0.111111000000001,  0.749637698425551 ]
    mass: 26.981539
    reduced_to: 19
  - symbol: Al # 29
    coordinates: [  0.555555666666666,  0.111111000000001,  0.749637698425551 ]
    mass: 26.981539
    reduced_to: 19
  - symbol: Al # 30
    coordinates: [  0.888888999999999,  0.111111000000001,  0.749637698425551 ]
    mass: 26.981539
    reduced_to: 19
  - symbol: Al # 31
    coordinates: [  0.222222333333332,  0.444444333333334,  0.749637698425551 ]
    mass: 26.981539
    reduced_to: 19
  - symbol: Al # 32
    coordinates: [  0.555555666666666,  0.444444333333334,  0.749637698425551 ]
    mass: 26.981539
    reduced_to: 19
  - symbol: Al # 33
    coordinates: [  0.888888999999999,  0.444444333333334,  0.749637698425551 ]
    mass: 26.981539
    reduced_to: 19
  - symbol: Al # 34
    coordinates: [  0.222222333333332,  0.777777666666668,  0.749637698425551 ]
    mass: 26.981539
    reduced_to: 19
  - symbol: Al # 35
    coordinates: [  0.555555666666666,  0.777777666666668,  0.749637698425551 ]
    mass: 26.981539
    reduced_to: 19
  - symbol: Al # 36
    coordinates: [  0.888888999999999,  0.777777666666668,  0.749637698425551 ]
    mass: 26.981539
    reduced_to: 19
  - symbol: N  # 37
    coordinates: [  0.111111000000001,  0.222222333333332,  0.190362301574451 ]
    mass: 14.006700
    reduced_to: 37
  - symbol: N  # 38
    coordinates: [  0.444444333333334,  0.222222333333332,  0.190362301574451 ]
    mass: 14.006700
    reduced_to: 37
  - symbol: N  # 39
    coordinates: [  0.777777666666668,  0.222222333333332,  0.190362301574451 ]
    mass: 14.006700
    reduced_to: 37
  - symbol: N  # 40
    coordinates: [  0.111111000000001,  0.555555666666666,  0.190362301574451 ]
    mass: 14.006700
    reduced_to: 37
  - symbol: N  # 41
    coordinates: [  0.444444333333334,  0.555555666666666,  0.190362301574451 ]
    mass: 14.006700
    reduced_to: 37
  - symbol: N  # 42
    coordinates: [  0.777777666666668,  0.555555666666666,  0.190362301574451 ]
    mass: 14.006700
    reduced_to: 37
  - symbol: N  # 43
    coordinates: [  0.111111000000001,  0.888888999999999,  0.190362301574451 ]
    mass: 14.006700
    reduced_to: 37
  - symbol: N  # 44
    coordinates: [  0.444444333333334,  0.888888999999999,  0.190362301574451 ]
    mass: 14.006700
    reduced_to: 37
  - symbol: N  # 45
    coordinates: [  0.777777666666668,  0.888888999999999,  0.190362301574451 ]
    mass: 14.006700
    reduced_to: 37
  - symbol: N  # 46
    coordinates: [  0.111111000000001,  0.222222333333332,  0.690362301574451 ]
    mass: 14.006700
    reduced_to: 37
  - symbol: N  # 47
    coordinates: [  0.444444333333334,  0.222222333333332,  0.690362301574451 ]
    mass: 14.006700
    reduced_to: 37
  - symbol: N  # 48
    coordinates: [  0.777777666666668,  0.222222333333332,  0.690362301574451 ]
    mass: 14.006700
    reduced_to: 37
  - symbol: N  # 49
    coordinates: [  0.111111000000001,  0.555555666666666,  0.690362301574451 ]
    mass: 14.006700
    reduced_to: 37
  - symbol: N  # 50
    coordinates: [  0.444444333333334,  0.555555666666666,  0.690362301574451 ]
    mass: 14.006700
    reduced_to: 37
  - symbol: N  # 51
    coordinates: [  0.777777666666668,  0.555555666666666,  0.690362301574451 ]
    mass: 14.006700
    reduced_to: 37
  - symbol: N  # 52
    coordinates: [  0.111111000000001,  0.888888999999999,  0.690362301574451 ]
    mass: 14.006700
    reduced_to: 37
  - symbol: N  # 53
    coordinates: [  0.444444333333334,  0.888888999999999,  0.690362301574451 ]
    mass: 14.006700
    reduced_to: 37
  - symbol: N  # 54
    coordinates: [  0.777777666666668,  0.888888999999999,  0.690362301574451 ]
    mass: 14.006700
    reduced_to: 37
  - symbol: N  # 55
    coordinates: [  0.222222333333332,  0.111111000000001,  0.440362301574451 ]
    mass: 14.006700
    reduced_to: 55
  - symbol: N  # 56
    coordinates: [  0.555555666666666,  0.111111000000001,  0.440362301574451 ]
    mass: 14.006700
    reduced_to: 55
  - symbol: N  # 57
    coordinates: [  0.888888999999999,  0.111111000000001,  0.440362301574451 ]
    mass: 14.006700
    reduced_to: 55
  - symbol: N  # 58
    coordinates: [  0.222222333333332,  0.444444333333334,  0.440362301574451 ]
    mass: 14.006700
    reduced_to: 55
  - symbol: N  # 59
    coordinates: [  0.555555666666666,  0.444444333333334,  0.440362301574451 ]
    mass: 14.006700
    reduced_to: 55
  - symbol: N  # 60
    coordinates: [  0.888888999999999,  0.444444333333334,  0.440362301574451 ]
    mass: 14.006700
    reduced_to: 55
  - symbol: N  # 61
    coordinates: [  0.222222333333332,  0.777777666666668,  0.440362301574451 ]
    mass: 14.006700
    reduced_to: 55
  - symbol: N  # 62
    coordinates: [  0.555555666666666,  0.777777666666668,  0.440362301574451 ]
    mass: 14.006700
    reduced_to: 55
  - symbol: N  # 63
    coordinates: [  0.888888999999999,  0.777777666666668,  0.440362301574451 ]
    mass: 14.006700
    reduced_to: 55
  - symbol: N  # 64
    coordinates: [  0.222222333333332,  0.111111000000001,  0.940362301574451 ]
    mass: 14.006700
    reduced_to: 55
  - symbol: N  # 65
    coordinates: [  0.555555666666666,  0.111111000000001,  0.940362301574451 ]
    mass: 14.006700
    reduced_to: 55
  - symbol: N  # 66
    coordinates: [  0.888888999999999,  0.111111000000001,  0.940362301574451 ]
    mass: 14.006700
    reduced_to: 55
  - symbol: N  # 67
    coordinates: [  0.222222333333332,  0.444444333333334,  0.940362301574451 ]
    mass: 14.006700
    reduced_to: 55
  - symbol: N  # 68
    coordinates: [  0.555555666666666,  0.444444333333334,  0.940362301574451 ]
    mass: 14.006700
    reduced_to: 55
  - symbol: N  # 69
    coordinates: [  0.888888999999999,  0.444444333333334,  0.940362301574451 ]
    mass: 14.006700
    reduced_to: 55
  - symbol: N  # 70
    coordinates: [  0.222222333333332,  0.777777666666668,  0.940362301574451 ]
    mass: 14.006700
    reduced_to: 55
  - symbol: N  # 71
    coordinates: [  0.555555666666666,  0.777777666666668,  0.940362301574451 ]
    mass: 14.006700
    reduced_to: 55
  - symbol: N  # 72
    coordinates: [  0.888888999999999,  0.777777666666668,  0.940362301574451 ]
    mass: 14.006700
    reduced_to: 55
