# epsilon and Z* of atoms 1 3
   1.95889500    0.00000000    0.00000000    0.00000000    1.95889500    0.00000000    0.00000000    0.00000000    1.99204000 
   1.97915000    0.04396000    0.00000000    0.04396000    1.97915000    0.00000000    0.00000000    0.00000000    2.06712667 
  -0.98957500    0.20183000    0.00000000    0.20183000   -0.98957500    0.00000000    0.00000000    0.00000000   -1.03356333 
