phonopy:
  version: 1.13.2
  configuration:

supercell_matrix:
- [   2,   0,   0 ]
- [   0,   2,   0 ]
- [   0,   0,   2 ]

space_group:
  type: "P4_2/mnm"
  number: 136
  Hall_symbol: "-P 4n 2n"

primitive_cell:
  lattice:
  - [     4.684327496341464,     0.000000000000000,     0.000000000000000 ] # a
  - [     0.000000000000000,     4.684327496341464,     0.000000000000000 ] # b
  - [     0.000000000000000,     0.000000000000000,     3.080958551248417 ] # c
  points:
  - symbol: Mg # 1
    coordinates: [  0.000000000000000,  0.000000000000000,  0.000000000000000 ]
    mass: 24.305000
  - symbol: Mg # 2
    coordinates: [  0.500000000000000,  0.500000000000000,  0.500000000000000 ]
    mass: 24.305000
  - symbol: F  # 3
    coordinates: [  0.196494167233363,  0.803505832766637,  0.500000000000000 ]
    mass: 18.998403
  - symbol: F  # 4
    coordinates: [  0.803505832766637,  0.196494167233363,  0.500000000000000 ]
    mass: 18.998403
  - symbol: F  # 5
    coordinates: [  0.696494167233363,  0.696494167233363,  0.000000000000000 ]
    mass: 18.998403
  - symbol: F  # 6
    coordinates: [  0.303505832766637,  0.303505832766637,  0.000000000000000 ]
    mass: 18.998403
  reciprocal_lattice: # without 2pi
  - [     0.213477815285335,     0.000000000000000,     0.000000000000000 ] # a*
  - [     0.000000000000000,     0.213477815285335,     0.000000000000000 ] # b*
  - [     0.000000000000000,     0.000000000000000,     0.324574311327491 ] # c*

unit_cell:
  lattice:
  - [     4.684327496341464,     0.000000000000000,     0.000000000000000 ] # a
  - [     0.000000000000000,     4.684327496341464,     0.000000000000000 ] # b
  - [     0.000000000000000,     0.000000000000000,     3.080958551248417 ] # c
  points:
  - symbol: Mg # 1
    coordinates: [  0.000000000000000,  0.000000000000000,  0.000000000000000 ]
    mass: 24.305000
    reduced_to: 1
  - symbol: Mg # 2
    coordinates: [  0.500000000000000,  0.500000000000000,  0.500000000000000 ]
    mass: 24.305000
    reduced_to: 2
  - symbol: F  # 3
    coordinates: [  0.196494167233363,  0.803505832766637,  0.500000000000000 ]
    mass: 18.998403
    reduced_to: 3
  - symbol: F  # 4
    coordinates: [  0.803505832766637,  0.196494167233363,  0.500000000000000 ]
    mass: 18.998403
    reduced_to: 4
  - symbol: F  # 5
    coordinates: [  0.696494167233363,  0.696494167233363, -0.000000000000000 ]
    mass: 18.998403
    reduced_to: 5
  - symbol: F  # 6
    coordinates: [  0.303505832766637,  0.303505832766637,  0.000000000000000 ]
    mass: 18.998403
    reduced_to: 6

supercell:
  lattice:
  - [     9.368654992682927,     0.000000000000000,     0.000000000000000 ] # a
  - [     0.000000000000000,     9.368654992682927,     0.000000000000000 ] # b
  - [     0.000000000000000,     0.000000000000000,     6.161917102496835 ] # c
  points:
  - symbol: Mg # 1
    coordinates: [  0.000000000000000,  0.000000000000000,  0.000000000000000 ]
    mass: 24.305000
    reduced_to: 1
  - symbol: Mg # 2
    coordinates: [  0.500000000000000,  0.000000000000000,  0.000000000000000 ]
    mass: 24.305000
    reduced_to: 1
  - symbol: Mg # 3
    coordinates: [  0.000000000000000,  0.500000000000000,  0.000000000000000 ]
    mass: 24.305000
    reduced_to: 1
  - symbol: Mg # 4
    coordinates: [  0.500000000000000,  0.500000000000000,  0.000000000000000 ]
    mass: 24.305000
    reduced_to: 1
  - symbol: Mg # 5
    coordinates: [  0.000000000000000,  0.000000000000000,  0.500000000000000 ]
    mass: 24.305000
    reduced_to: 1
  - symbol: Mg # 6
    coordinates: [  0.500000000000000,  0.000000000000000,  0.500000000000000 ]
    mass: 24.305000
    reduced_to: 1
  - symbol: Mg # 7
    coordinates: [  0.000000000000000,  0.500000000000000,  0.500000000000000 ]
    mass: 24.305000
    reduced_to: 1
  - symbol: Mg # 8
    coordinates: [  0.500000000000000,  0.500000000000000,  0.500000000000000 ]
    mass: 24.305000
    reduced_to: 1
  - symbol: Mg # 9
    coordinates: [  0.250000000000000,  0.250000000000000,  0.250000000000000 ]
    mass: 24.305000
    reduced_to: 9
  - symbol: Mg # 10
    coordinates: [  0.750000000000000,  0.250000000000000,  0.250000000000000 ]
    mass: 24.305000
    reduced_to: 9
  - symbol: Mg # 11
    coordinates: [  0.250000000000000,  0.750000000000000,  0.250000000000000 ]
    mass: 24.305000
    reduced_to: 9
  - symbol: Mg # 12
    coordinates: [  0.750000000000000,  0.750000000000000,  0.250000000000000 ]
    mass: 24.305000
    reduced_to: 9
  - symbol: Mg # 13
    coordinates: [  0.250000000000000,  0.250000000000000,  0.750000000000000 ]
    mass: 24.305000
    reduced_to: 9
  - symbol: Mg # 14
    coordinates: [  0.750000000000000,  0.250000000000000,  0.750000000000000 ]
    mass: 24.305000
    reduced_to: 9
  - symbol: Mg # 15
    coordinates: [  0.250000000000000,  0.750000000000000,  0.750000000000000 ]
    mass: 24.305000
    reduced_to: 9
  - symbol: Mg # 16
    coordinates: [  0.750000000000000,  0.750000000000000,  0.750000000000000 ]
    mass: 24.305000
    reduced_to: 9
  - symbol: F  # 17
    coordinates: [  0.098247083616681,  0.401752916383319,  0.250000000000000 ]
    mass: 18.998403
    reduced_to: 17
  - symbol: F  # 18
    coordinates: [  0.598247083616681,  0.401752916383319,  0.250000000000000 ]
    mass: 18.998403
    reduced_to: 17
  - symbol: F  # 19
    coordinates: [  0.098247083616681,  0.901752916383319,  0.250000000000000 ]
    mass: 18.998403
    reduced_to: 17
  - symbol: F  # 20
    coordinates: [  0.598247083616681,  0.901752916383319,  0.250000000000000 ]
    mass: 18.998403
    reduced_to: 17
  - symbol: F  # 21
    coordinates: [  0.098247083616681,  0.401752916383319,  0.750000000000000 ]
    mass: 18.998403
    reduced_to: 17
  - symbol: F  # 22
    coordinates: [  0.598247083616681,  0.401752916383319,  0.750000000000000 ]
    mass: 18.998403
    reduced_to: 17
  - symbol: F  # 23
    coordinates: [  0.098247083616681,  0.901752916383319,  0.750000000000000 ]
    mass: 18.998403
    reduced_to: 17
  - symbol: F  # 24
    coordinates: [  0.598247083616681,  0.901752916383319,  0.750000000000000 ]
    mass: 18.998403
    reduced_to: 17
  - symbol: F  # 25
    coordinates: [  0.401752916383319,  0.098247083616681,  0.250000000000000 ]
    mass: 18.998403
    reduced_to: 25
  - symbol: F  # 26
    coordinates: [  0.901752916383319,  0.098247083616681,  0.250000000000000 ]
    mass: 18.998403
    reduced_to: 25
  - symbol: F  # 27
    coordinates: [  0.401752916383319,  0.598247083616681,  0.250000000000000 ]
    mass: 18.998403
    reduced_to: 25
  - symbol: F  # 28
    coordinates: [  0.901752916383319,  0.598247083616681,  0.250000000000000 ]
    mass: 18.998403
    reduced_to: 25
  - symbol: F  # 29
    coordinates: [  0.401752916383319,  0.098247083616681,  0.750000000000000 ]
    mass: 18.998403
    reduced_to: 25
  - symbol: F  # 30
    coordinates: [  0.901752916383319,  0.098247083616681,  0.750000000000000 ]
    mass: 18.998403
    reduced_to: 25
  - symbol: F  # 31
    coordinates: [  0.401752916383319,  0.598247083616681,  0.750000000000000 ]
    mass: 18.998403
    reduced_to: 25
  - symbol: F  # 32
    coordinates: [  0.901752916383319,  0.598247083616681,  0.750000000000000 ]
    mass: 18.998403
    reduced_to: 25
  - symbol: F  # 33
    coordinates: [  0.348247083616681,  0.348247083616681,  0.000000000000000 ]
    mass: 18.998403
    reduced_to: 33
  - symbol: F  # 34
    coordinates: [  0.848247083616681,  0.348247083616681,  0.000000000000000 ]
    mass: 18.998403
    reduced_to: 33
  - symbol: F  # 35
    coordinates: [  0.348247083616681,  0.848247083616681,  0.000000000000000 ]
    mass: 18.998403
    reduced_to: 33
  - symbol: F  # 36
    coordinates: [  0.848247083616681,  0.848247083616681,  0.000000000000000 ]
    mass: 18.998403
    reduced_to: 33
  - symbol: F  # 37
    coordinates: [  0.348247083616681,  0.348247083616681,  0.500000000000000 ]
    mass: 18.998403
    reduced_to: 33
  - symbol: F  # 38
    coordinates: [  0.848247083616681,  0.348247083616681,  0.500000000000000 ]
    mass: 18.998403
    reduced_to: 33
  - symbol: F  # 39
    coordinates: [  0.348247083616681,  0.848247083616681,  0.500000000000000 ]
    mass: 18.998403
    reduced_to: 33
  - symbol: F  # 40
    coordinates: [  0.848247083616681,  0.848247083616681,  0.500000000000000 ]
    mass: 18.998403
    reduced_to: 33
  - symbol: F  # 41
    coordinates: [  0.151752916383319,  0.151752916383319,  0.000000000000000 ]
    mass: 18.998403
    reduced_to: 41
  - symbol: F  # 42
    coordinates: [  0.651752916383319,  0.151752916383319,  0.000000000000000 ]
    mass: 18.998403
    reduced_to: 41
  - symbol: F  # 43
    coordinates: [  0.151752916383319,  0.651752916383319,  0.000000000000000 ]
    mass: 18.998403
    reduced_to: 41
  - symbol: F  # 44
    coordinates: [  0.651752916383319,  0.651752916383319,  0.000000000000000 ]
    mass: 18.998403
    reduced_to: 41
  - symbol: F  # 45
    coordinates: [  0.151752916383319,  0.151752916383319,  0.500000000000000 ]
    mass: 18.998403
    reduced_to: 41
  - symbol: F  # 46
    coordinates: [  0.651752916383319,  0.151752916383319,  0.500000000000000 ]
    mass: 18.998403
    reduced_to: 41
  - symbol: F  # 47
    coordinates: [  0.151752916383319,  0.651752916383319,  0.500000000000000 ]
    mass: 18.998403
    reduced_to: 41
  - symbol: F  # 48
    coordinates: [  0.651752916383319,  0.651752916383319,  0.500000000000000 ]
    mass: 18.998403
    reduced_to: 41
