# epsilon and Z* of atoms 1 5
   2.02123500    0.00000000    0.00000000    0.00000000    2.02123500    0.00000000    0.00000000    0.00000000    2.02123500 
   1.05121000    0.00000000    0.00000000    0.00000000    1.05121000    0.00000000    0.00000000    0.00000000    1.05121000 
  -1.05121000    0.00000000    0.00000000    0.00000000   -1.05121000    0.00000000    0.00000000    0.00000000   -1.05121000 
