phonopy:
  version: 1.13.2
  configuration:
    dim: "2 2 2"
    create_displacements: ".true."

supercell_matrix:
- [   2,   0,   0 ]
- [   0,   2,   0 ]
- [   0,   0,   2 ]

space_group:
  type: "F-43m"
  number: 216
  Hall_symbol: "F -4 2 3"

primitive_cell:
  lattice:
  - [     6.634698831315531,     0.000000000000000,     0.000000000000000 ] # a
  - [     0.000000000000000,     6.634698831315531,     0.000000000000000 ] # b
  - [     0.000000000000000,     0.000000000000000,     6.634698831315531 ] # c
  points:
  - symbol: In # 1
    coordinates: [  0.000000000000000,  0.000000000000000,  0.000000000000000 ]
    mass: 114.818000
  - symbol: In # 2
    coordinates: [  0.000000000000000,  0.500000000000000,  0.500000000000000 ]
    mass: 114.818000
  - symbol: In # 3
    coordinates: [  0.500000000000000,  0.000000000000000,  0.500000000000000 ]
    mass: 114.818000
  - symbol: In # 4
    coordinates: [  0.500000000000000,  0.500000000000000,  0.000000000000000 ]
    mass: 114.818000
  - symbol: Sb # 5
    coordinates: [  0.250000000000000,  0.250000000000000,  0.250000000000000 ]
    mass: 121.760000
  - symbol: Sb # 6
    coordinates: [  0.750000000000000,  0.750000000000000,  0.250000000000000 ]
    mass: 121.760000
  - symbol: Sb # 7
    coordinates: [  0.750000000000000,  0.250000000000000,  0.750000000000000 ]
    mass: 121.760000
  - symbol: Sb # 8
    coordinates: [  0.250000000000000,  0.750000000000000,  0.750000000000000 ]
    mass: 121.760000
  reciprocal_lattice: # without 2pi
  - [     0.150722741969845,     0.000000000000000,     0.000000000000000 ] # a*
  - [     0.000000000000000,     0.150722741969845,     0.000000000000000 ] # b*
  - [     0.000000000000000,     0.000000000000000,     0.150722741969845 ] # c*

unit_cell:
  lattice:
  - [     6.634698831315531,     0.000000000000000,     0.000000000000000 ] # a
  - [    -0.000000000000000,     6.634698831315531,    -0.000000000000000 ] # b
  - [    -0.000000000000000,     0.000000000000000,     6.634698831315531 ] # c
  points:
  - symbol: In # 1
    coordinates: [  0.000000000000000,  0.000000000000000,  0.000000000000000 ]
    mass: 114.818000
    reduced_to: 1
  - symbol: In # 2
    coordinates: [ -0.000000000000000,  0.500000000000000,  0.500000000000000 ]
    mass: 114.818000
    reduced_to: 2
  - symbol: In # 3
    coordinates: [  0.500000000000000,  0.000000000000000,  0.500000000000000 ]
    mass: 114.818000
    reduced_to: 3
  - symbol: In # 4
    coordinates: [  0.500000000000000,  0.500000000000000,  0.000000000000000 ]
    mass: 114.818000
    reduced_to: 4
  - symbol: Sb # 5
    coordinates: [  0.250000000000000,  0.250000000000000,  0.250000000000000 ]
    mass: 121.760000
    reduced_to: 5
  - symbol: Sb # 6
    coordinates: [  0.750000000000000,  0.750000000000000,  0.250000000000000 ]
    mass: 121.760000
    reduced_to: 6
  - symbol: Sb # 7
    coordinates: [  0.750000000000000,  0.250000000000000,  0.750000000000000 ]
    mass: 121.760000
    reduced_to: 7
  - symbol: Sb # 8
    coordinates: [  0.250000000000000,  0.750000000000000,  0.750000000000000 ]
    mass: 121.760000
    reduced_to: 8

supercell:
  lattice:
  - [    13.269397662631063,     0.000000000000000,     0.000000000000000 ] # a
  - [     0.000000000000000,    13.269397662631063,     0.000000000000000 ] # b
  - [     0.000000000000000,     0.000000000000000,    13.269397662631063 ] # c
  points:
  - symbol: In # 1
    coordinates: [  0.000000000000000,  0.000000000000000,  0.000000000000000 ]
    mass: 114.818000
    reduced_to: 1
  - symbol: In # 2
    coordinates: [  0.500000000000000,  0.000000000000000,  0.000000000000000 ]
    mass: 114.818000
    reduced_to: 1
  - symbol: In # 3
    coordinates: [  0.000000000000000,  0.500000000000000,  0.000000000000000 ]
    mass: 114.818000
    reduced_to: 1
  - symbol: In # 4
    coordinates: [  0.500000000000000,  0.500000000000000,  0.000000000000000 ]
    mass: 114.818000
    reduced_to: 1
  - symbol: In # 5
    coordinates: [  0.000000000000000,  0.000000000000000,  0.500000000000000 ]
    mass: 114.818000
    reduced_to: 1
  - symbol: In # 6
    coordinates: [  0.500000000000000,  0.000000000000000,  0.500000000000000 ]
    mass: 114.818000
    reduced_to: 1
  - symbol: In # 7
    coordinates: [  0.000000000000000,  0.500000000000000,  0.500000000000000 ]
    mass: 114.818000
    reduced_to: 1
  - symbol: In # 8
    coordinates: [  0.500000000000000,  0.500000000000000,  0.500000000000000 ]
    mass: 114.818000
    reduced_to: 1
  - symbol: In # 9
    coordinates: [  0.000000000000000,  0.250000000000000,  0.250000000000000 ]
    mass: 114.818000
    reduced_to: 9
  - symbol: In # 10
    coordinates: [  0.500000000000000,  0.250000000000000,  0.250000000000000 ]
    mass: 114.818000
    reduced_to: 9
  - symbol: In # 11
    coordinates: [  0.000000000000000,  0.750000000000000,  0.250000000000000 ]
    mass: 114.818000
    reduced_to: 9
  - symbol: In # 12
    coordinates: [  0.500000000000000,  0.750000000000000,  0.250000000000000 ]
    mass: 114.818000
    reduced_to: 9
  - symbol: In # 13
    coordinates: [  0.000000000000000,  0.250000000000000,  0.750000000000000 ]
    mass: 114.818000
    reduced_to: 9
  - symbol: In # 14
    coordinates: [  0.500000000000000,  0.250000000000000,  0.750000000000000 ]
    mass: 114.818000
    reduced_to: 9
  - symbol: In # 15
    coordinates: [  0.000000000000000,  0.750000000000000,  0.750000000000000 ]
    mass: 114.818000
    reduced_to: 9
  - symbol: In # 16
    coordinates: [  0.500000000000000,  0.750000000000000,  0.750000000000000 ]
    mass: 114.818000
    reduced_to: 9
  - symbol: In # 17
    coordinates: [  0.250000000000000,  0.000000000000000,  0.250000000000000 ]
    mass: 114.818000
    reduced_to: 17
  - symbol: In # 18
    coordinates: [  0.750000000000000,  0.000000000000000,  0.250000000000000 ]
    mass: 114.818000
    reduced_to: 17
  - symbol: In # 19
    coordinates: [  0.250000000000000,  0.500000000000000,  0.250000000000000 ]
    mass: 114.818000
    reduced_to: 17
  - symbol: In # 20
    coordinates: [  0.750000000000000,  0.500000000000000,  0.250000000000000 ]
    mass: 114.818000
    reduced_to: 17
  - symbol: In # 21
    coordinates: [  0.250000000000000,  0.000000000000000,  0.750000000000000 ]
    mass: 114.818000
    reduced_to: 17
  - symbol: In # 22
    coordinates: [  0.750000000000000,  0.000000000000000,  0.750000000000000 ]
    mass: 114.818000
    reduced_to: 17
  - symbol: In # 23
    coordinates: [  0.250000000000000,  0.500000000000000,  0.750000000000000 ]
    mass: 114.818000
    reduced_to: 17
  - symbol: In # 24
    coordinates: [  0.750000000000000,  0.500000000000000,  0.750000000000000 ]
    mass: 114.818000
    reduced_to: 17
  - symbol: In # 25
    coordinates: [  0.250000000000000,  0.250000000000000,  0.000000000000000 ]
    mass: 114.818000
    reduced_to: 25
  - symbol: In # 26
    coordinates: [  0.750000000000000,  0.250000000000000,  0.000000000000000 ]
    mass: 114.818000
    reduced_to: 25
  - symbol: In # 27
    coordinates: [  0.250000000000000,  0.750000000000000,  0.000000000000000 ]
    mass: 114.818000
    reduced_to: 25
  - symbol: In # 28
    coordinates: [  0.750000000000000,  0.750000000000000,  0.000000000000000 ]
    mass: 114.818000
    reduced_to: 25
  - symbol: In # 29
    coordinates: [  0.250000000000000,  0.250000000000000,  0.500000000000000 ]
    mass: 114.818000
    reduced_to: 25
  - symbol: In # 30
    coordinates: [  0.750000000000000,  0.250000000000000,  0.500000000000000 ]
    mass: 114.818000
    reduced_to: 25
  - symbol: In # 31
    coordinates: [  0.250000000000000,  0.750000000000000,  0.500000000000000 ]
    mass: 114.818000
    reduced_to: 25
  - symbol: In # 32
    coordinates: [  0.750000000000000,  0.750000000000000,  0.500000000000000 ]
    mass: 114.818000
    reduced_to: 25
  - symbol: Sb # 33
    coordinates: [  0.125000000000000,  0.125000000000000,  0.125000000000000 ]
    mass: 121.760000
    reduced_to: 33
  - symbol: Sb # 34
    coordinates: [  0.625000000000000,  0.125000000000000,  0.125000000000000 ]
    mass: 121.760000
    reduced_to: 33
  - symbol: Sb # 35
    coordinates: [  0.125000000000000,  0.625000000000000,  0.125000000000000 ]
    mass: 121.760000
    reduced_to: 33
  - symbol: Sb # 36
    coordinates: [  0.625000000000000,  0.625000000000000,  0.125000000000000 ]
    mass: 121.760000
    reduced_to: 33
  - symbol: Sb # 37
    coordinates: [  0.125000000000000,  0.125000000000000,  0.625000000000000 ]
    mass: 121.760000
    reduced_to: 33
  - symbol: Sb # 38
    coordinates: [  0.625000000000000,  0.125000000000000,  0.625000000000000 ]
    mass: 121.760000
    reduced_to: 33
  - symbol: Sb # 39
    coordinates: [  0.125000000000000,  0.625000000000000,  0.625000000000000 ]
    mass: 121.760000
    reduced_to: 33
  - symbol: Sb # 40
    coordinates: [  0.625000000000000,  0.625000000000000,  0.625000000000000 ]
    mass: 121.760000
    reduced_to: 33
  - symbol: Sb # 41
    coordinates: [  0.375000000000000,  0.375000000000000,  0.125000000000000 ]
    mass: 121.760000
    reduced_to: 41
  - symbol: Sb # 42
    coordinates: [  0.875000000000000,  0.375000000000000,  0.125000000000000 ]
    mass: 121.760000
    reduced_to: 41
  - symbol: Sb # 43
    coordinates: [  0.375000000000000,  0.875000000000000,  0.125000000000000 ]
    mass: 121.760000
    reduced_to: 41
  - symbol: Sb # 44
    coordinates: [  0.875000000000000,  0.875000000000000,  0.125000000000000 ]
    mass: 121.760000
    reduced_to: 41
  - symbol: Sb # 45
    coordinates: [  0.375000000000000,  0.375000000000000,  0.625000000000000 ]
    mass: 121.760000
    reduced_to: 41
  - symbol: Sb # 46
    coordinates: [  0.875000000000000,  0.375000000000000,  0.625000000000000 ]
    mass: 121.760000
    reduced_to: 41
  - symbol: Sb # 47
    coordinates: [  0.375000000000000,  0.875000000000000,  0.625000000000000 ]
    mass: 121.760000
    reduced_to: 41
  - symbol: Sb # 48
    coordinates: [  0.875000000000000,  0.875000000000000,  0.625000000000000 ]
    mass: 121.760000
    reduced_to: 41
  - symbol: Sb # 49
    coordinates: [  0.375000000000000,  0.125000000000000,  0.375000000000000 ]
    mass: 121.760000
    reduced_to: 49
  - symbol: Sb # 50
    coordinates: [  0.875000000000000,  0.125000000000000,  0.375000000000000 ]
    mass: 121.760000
    reduced_to: 49
  - symbol: Sb # 51
    coordinates: [  0.375000000000000,  0.625000000000000,  0.375000000000000 ]
    mass: 121.760000
    reduced_to: 49
  - symbol: Sb # 52
    coordinates: [  0.875000000000000,  0.625000000000000,  0.375000000000000 ]
    mass: 121.760000
    reduced_to: 49
  - symbol: Sb # 53
    coordinates: [  0.375000000000000,  0.125000000000000,  0.875000000000000 ]
    mass: 121.760000
    reduced_to: 49
  - symbol: Sb # 54
    coordinates: [  0.875000000000000,  0.125000000000000,  0.875000000000000 ]
    mass: 121.760000
    reduced_to: 49
  - symbol: Sb # 55
    coordinates: [  0.375000000000000,  0.625000000000000,  0.875000000000000 ]
    mass: 121.760000
    reduced_to: 49
  - symbol: Sb # 56
    coordinates: [  0.875000000000000,  0.625000000000000,  0.875000000000000 ]
    mass: 121.760000
    reduced_to: 49
  - symbol: Sb # 57
    coordinates: [  0.125000000000000,  0.375000000000000,  0.375000000000000 ]
    mass: 121.760000
    reduced_to: 57
  - symbol: Sb # 58
    coordinates: [  0.625000000000000,  0.375000000000000,  0.375000000000000 ]
    mass: 121.760000
    reduced_to: 57
  - symbol: Sb # 59
    coordinates: [  0.125000000000000,  0.875000000000000,  0.375000000000000 ]
    mass: 121.760000
    reduced_to: 57
  - symbol: Sb # 60
    coordinates: [  0.625000000000000,  0.875000000000000,  0.375000000000000 ]
    mass: 121.760000
    reduced_to: 57
  - symbol: Sb # 61
    coordinates: [  0.125000000000000,  0.375000000000000,  0.875000000000000 ]
    mass: 121.760000
    reduced_to: 57
  - symbol: Sb # 62
    coordinates: [  0.625000000000000,  0.375000000000000,  0.875000000000000 ]
    mass: 121.760000
    reduced_to: 57
  - symbol: Sb # 63
    coordinates: [  0.125000000000000,  0.875000000000000,  0.875000000000000 ]
    mass: 121.760000
    reduced_to: 57
  - symbol: Sb # 64
    coordinates: [  0.625000000000000,  0.875000000000000,  0.875000000000000 ]
    mass: 121.760000
    reduced_to: 57
