# epsilon and Z* of atoms 1 3
   6.29915150   -0.00000000    0.00000000   -0.00000000    6.29915150    0.00000000    0.00000000    0.00000000    5.79921900 
   2.15447000   -0.00000000    0.00000000   -0.00000000    2.15447000   -0.00000000    0.00000000    0.00000000    2.18769500 
  -2.15447000    0.00000000   -0.00000000    0.00000000   -2.15447000    0.00000000    0.00000000    0.00000000   -2.18769500 
