phonopy:
  version: 1.13.2
  configuration:
    dim: "2 2 2"
    create_displacements: ".true."

supercell_matrix:
- [   2,   0,   0 ]
- [   0,   2,   0 ]
- [   0,   0,   2 ]

space_group:
  type: "P6_3mc"
  number: 186
  Hall_symbol: "P 6c -2c"

primitive_cell:
  lattice:
  - [     3.287494820409501,    -0.000000000282251,     0.000000000000000 ] # a
  - [    -1.643746910693658,     2.847054275400608,     0.000000000000000 ] # b
  - [     0.000000000000000,     0.000000000000000,     5.304154933341274 ] # c
  points:
  - symbol: Zn # 1
    coordinates: [  0.333333000000003,  0.666666999999997,  0.000544099107153 ]
    mass: 65.380000
  - symbol: Zn # 2
    coordinates: [  0.666666999999997,  0.333333000000003,  0.500544099107153 ]
    mass: 65.380000
  - symbol: O  # 3
    coordinates: [  0.333333000000003,  0.666666999999997,  0.379765900892849 ]
    mass: 15.999400
  - symbol: O  # 4
    coordinates: [  0.666666999999997,  0.333333000000003,  0.879765900892849 ]
    mass: 15.999400
  reciprocal_lattice: # without 2pi
  - [     0.304182988773502,     0.175620061901227,     0.000000000000000 ] # a*
  - [     0.000000000030156,     0.351240230539286,     0.000000000000000 ] # b*
  - [     0.000000000000000,     0.000000000000000,     0.188531446114841 ] # c*

unit_cell:
  lattice:
  - [     3.287494820409501,    -0.000000000282251,    -0.000000000000000 ] # a
  - [    -1.643746910693658,     2.847054275400608,     0.000000000000000 ] # b
  - [    -0.000000000000000,     0.000000000000000,     5.304154933341274 ] # c
  points:
  - symbol: Zn # 1
    coordinates: [  0.333333000000003,  0.666666999999997,  0.000544099107153 ]
    mass: 65.380000
    reduced_to: 1
  - symbol: Zn # 2
    coordinates: [  0.666666999999997,  0.333333000000003,  0.500544099107153 ]
    mass: 65.380000
    reduced_to: 2
  - symbol: O  # 3
    coordinates: [  0.333333000000003,  0.666666999999997,  0.379765900892849 ]
    mass: 15.999400
    reduced_to: 3
  - symbol: O  # 4
    coordinates: [  0.666666999999997,  0.333333000000003,  0.879765900892849 ]
    mass: 15.999400
    reduced_to: 4

supercell:
  lattice:
  - [     6.574989640819002,    -0.000000000564502,     0.000000000000000 ] # a
  - [    -3.287493821387315,     5.694108550801215,     0.000000000000000 ] # b
  - [     0.000000000000000,     0.000000000000000,    10.608309866682548 ] # c
  points:
  - symbol: Zn # 1
    coordinates: [  0.166666500000002,  0.333333499999998,  0.000272049553576 ]
    mass: 65.380000
    reduced_to: 1
  - symbol: Zn # 2
    coordinates: [  0.666666500000002,  0.333333499999998,  0.000272049553576 ]
    mass: 65.380000
    reduced_to: 1
  - symbol: Zn # 3
    coordinates: [  0.166666500000002,  0.833333499999998,  0.000272049553576 ]
    mass: 65.380000
    reduced_to: 1
  - symbol: Zn # 4
    coordinates: [  0.666666500000002,  0.833333499999998,  0.000272049553576 ]
    mass: 65.380000
    reduced_to: 1
  - symbol: Zn # 5
    coordinates: [  0.166666500000002,  0.333333499999998,  0.500272049553576 ]
    mass: 65.380000
    reduced_to: 1
  - symbol: Zn # 6
    coordinates: [  0.666666500000002,  0.333333499999998,  0.500272049553576 ]
    mass: 65.380000
    reduced_to: 1
  - symbol: Zn # 7
    coordinates: [  0.166666500000002,  0.833333499999998,  0.500272049553576 ]
    mass: 65.380000
    reduced_to: 1
  - symbol: Zn # 8
    coordinates: [  0.666666500000002,  0.833333499999998,  0.500272049553576 ]
    mass: 65.380000
    reduced_to: 1
  - symbol: Zn # 9
    coordinates: [  0.333333499999998,  0.166666500000002,  0.250272049553576 ]
    mass: 65.380000
    reduced_to: 9
  - symbol: Zn # 10
    coordinates: [  0.833333499999998,  0.166666500000002,  0.250272049553576 ]
    mass: 65.380000
    reduced_to: 9
  - symbol: Zn # 11
    coordinates: [  0.333333499999998,  0.666666500000002,  0.250272049553576 ]
    mass: 65.380000
    reduced_to: 9
  - symbol: Zn # 12
    coordinates: [  0.833333499999998,  0.666666500000002,  0.250272049553576 ]
    mass: 65.380000
    reduced_to: 9
  - symbol: Zn # 13
    coordinates: [  0.333333499999998,  0.166666500000002,  0.750272049553576 ]
    mass: 65.380000
    reduced_to: 9
  - symbol: Zn # 14
    coordinates: [  0.833333499999998,  0.166666500000002,  0.750272049553576 ]
    mass: 65.380000
    reduced_to: 9
  - symbol: Zn # 15
    coordinates: [  0.333333499999998,  0.666666500000002,  0.750272049553576 ]
    mass: 65.380000
    reduced_to: 9
  - symbol: Zn # 16
    coordinates: [  0.833333499999998,  0.666666500000002,  0.750272049553576 ]
    mass: 65.380000
    reduced_to: 9
  - symbol: O  # 17
    coordinates: [  0.166666500000002,  0.333333499999998,  0.189882950446424 ]
    mass: 15.999400
    reduced_to: 17
  - symbol: O  # 18
    coordinates: [  0.666666500000002,  0.333333499999998,  0.189882950446424 ]
    mass: 15.999400
    reduced_to: 17
  - symbol: O  # 19
    coordinates: [  0.166666500000002,  0.833333499999998,  0.189882950446424 ]
    mass: 15.999400
    reduced_to: 17
  - symbol: O  # 20
    coordinates: [  0.666666500000002,  0.833333499999998,  0.189882950446424 ]
    mass: 15.999400
    reduced_to: 17
  - symbol: O  # 21
    coordinates: [  0.166666500000002,  0.333333499999998,  0.689882950446424 ]
    mass: 15.999400
    reduced_to: 17
  - symbol: O  # 22
    coordinates: [  0.666666500000002,  0.333333499999998,  0.689882950446424 ]
    mass: 15.999400
    reduced_to: 17
  - symbol: O  # 23
    coordinates: [  0.166666500000002,  0.833333499999998,  0.689882950446424 ]
    mass: 15.999400
    reduced_to: 17
  - symbol: O  # 24
    coordinates: [  0.666666500000002,  0.833333499999998,  0.689882950446424 ]
    mass: 15.999400
    reduced_to: 17
  - symbol: O  # 25
    coordinates: [  0.333333499999998,  0.166666500000002,  0.439882950446424 ]
    mass: 15.999400
    reduced_to: 25
  - symbol: O  # 26
    coordinates: [  0.833333499999998,  0.166666500000002,  0.439882950446424 ]
    mass: 15.999400
    reduced_to: 25
  - symbol: O  # 27
    coordinates: [  0.333333499999998,  0.666666500000002,  0.439882950446424 ]
    mass: 15.999400
    reduced_to: 25
  - symbol: O  # 28
    coordinates: [  0.833333499999998,  0.666666500000002,  0.439882950446424 ]
    mass: 15.999400
    reduced_to: 25
  - symbol: O  # 29
    coordinates: [  0.333333499999998,  0.166666500000002,  0.939882950446424 ]
    mass: 15.999400
    reduced_to: 25
  - symbol: O  # 30
    coordinates: [  0.833333499999998,  0.166666500000002,  0.939882950446424 ]
    mass: 15.999400
    reduced_to: 25
  - symbol: O  # 31
    coordinates: [  0.333333499999998,  0.666666500000002,  0.939882950446424 ]
    mass: 15.999400
    reduced_to: 25
  - symbol: O  # 32
    coordinates: [  0.833333499999998,  0.666666500000002,  0.939882950446424 ]
    mass: 15.999400
    reduced_to: 25
