81   
2    

1    
  0.0000000000000000   0.0070710678118655   0.0070710678118655
   0.0000000000   -0.0514060700   -0.0514060700
   0.0000000000    0.0109587100    0.0109587100
   0.0000000000    0.0108769000    0.0108769000
   0.0066114600   -0.0052447300    0.0043070700
   0.0000078000    0.0018754900    0.0018811300
  -0.0065991400    0.0043174500   -0.0052007600
   0.0065991400   -0.0052007600    0.0043174500
  -0.0066114600    0.0043070700   -0.0052447300
  -0.0000078000    0.0018811300    0.0018754900
   0.0066114600    0.0043070700   -0.0052447300
   0.0000078000    0.0018811300    0.0018754900
  -0.0065991400   -0.0052007600    0.0043174500
   0.0015438200    0.0003401000    0.0003401000
  -0.0015360600    0.0003365700    0.0003365700
  -0.0000034100   -0.0006858700   -0.0006858700
   0.0000000000   -0.0023111600   -0.0022747000
   0.0000000000    0.0025437500   -0.0006932100
   0.0000000000   -0.0006785700    0.0025383600
   0.0065991400    0.0043174500   -0.0052007600
  -0.0066114600   -0.0052447300    0.0043070700
  -0.0000078000    0.0018754900    0.0018811300
   0.0000000000   -0.0022747000   -0.0023111600
   0.0000000000   -0.0006932100    0.0025437500
   0.0000000000    0.0025383600   -0.0006785700
   0.0015360600    0.0003365700    0.0003365700
   0.0000034100   -0.0006858700   -0.0006858700
  -0.0015438200    0.0003401000    0.0003401000
   0.0005141200    0.0060757100    0.0060757100
  -0.0000049100   -0.0024686200   -0.0024686200
  -0.0000684400    0.0056094600    0.0056094600
  -0.0013969200    0.0002244800   -0.0010729100
   0.0013942800   -0.0010730800    0.0002241000
   0.0000069000    0.0008643200    0.0008655300
   0.0000046700    0.0055395000    0.0055639900
   0.0010916600   -0.0033106000   -0.0002183300
  -0.0010801200   -0.0002235800   -0.0032970000
  -0.0013969200   -0.0010729100    0.0002244800
   0.0013942800    0.0002241000   -0.0010730800
   0.0000069000    0.0008655300    0.0008643200
  -0.0000028000    0.0003226000    0.0003226000
   0.0005719900   -0.0001613800   -0.0001613800
  -0.0005692600   -0.0001617800   -0.0001617800
  -0.0003138900   -0.0004256100    0.0011848200
   0.0000002700   -0.0007343700   -0.0007301000
   0.0003168600    0.0011757700   -0.0004364600
   0.0000046700    0.0055639900    0.0055395000
   0.0010916600   -0.0002183300   -0.0033106000
  -0.0010801200   -0.0032970000   -0.0002235800
  -0.0003138900    0.0011848200   -0.0004256100
   0.0000002700   -0.0007301000   -0.0007343700
   0.0003168600   -0.0004364600    0.0011757700
  -0.0028692500    0.0000936200    0.0000936200
   0.0028762700    0.0000952400    0.0000952400
   0.0000040300   -0.0002287900   -0.0002287900
  -0.0000040300   -0.0002287900   -0.0002287900
   0.0028692500    0.0000936200    0.0000936200
  -0.0028762700    0.0000952400    0.0000952400
   0.0003138900   -0.0004256100    0.0011848200
  -0.0000002700   -0.0007343700   -0.0007301000
  -0.0003168600    0.0011757700   -0.0004364600
  -0.0010916600   -0.0033106000   -0.0002183300
   0.0010801200   -0.0002235800   -0.0032970000
  -0.0000046700    0.0055395000    0.0055639900
   0.0003138900    0.0011848200   -0.0004256100
  -0.0000002700   -0.0007301000   -0.0007343700
  -0.0003168600   -0.0004364600    0.0011757700
  -0.0005719900   -0.0001613800   -0.0001613800
   0.0005692600   -0.0001617800   -0.0001617800
   0.0000028000    0.0003226000    0.0003226000
  -0.0000069000    0.0008643200    0.0008655300
   0.0013969200    0.0002244800   -0.0010729100
  -0.0013942800   -0.0010730800    0.0002241000
  -0.0010916600   -0.0002183300   -0.0033106000
   0.0010801200   -0.0032970000   -0.0002235800
  -0.0000046700    0.0055639900    0.0055395000
  -0.0000069000    0.0008655300    0.0008643200
   0.0013969200   -0.0010729100    0.0002244800
  -0.0013942800    0.0002241000   -0.0010730800
  -0.0005141200    0.0060757100    0.0060757100
   0.0000049100   -0.0024686200   -0.0024686200
   0.0000684400    0.0056094600    0.0056094600

28   
  0.0000000000000000   0.0070710678118655   0.0070710678118655
   0.0000528100    0.0056233100    0.0056233100
  -0.0005295600    0.0060611500    0.0060611500
   0.0000002400   -0.0024685800   -0.0024685800
   0.0000015400    0.0055408100    0.0055625800
  -0.0018274500   -0.0009534600   -0.0025698700
   0.0018158200   -0.0025660500   -0.0009598800
  -0.0013884700    0.0002226300   -0.0010667000
  -0.0000015800    0.0008672400    0.0008627400
   0.0014027000   -0.0010793700    0.0002259900
   0.0000015400    0.0055625800    0.0055408100
  -0.0018274500   -0.0025698700   -0.0009534600
   0.0018158200   -0.0009598800   -0.0025660500
  -0.0013950600    0.0001011700    0.0001011700
  -0.0000012900   -0.0002288000   -0.0002288000
   0.0014074400    0.0000877600    0.0000877600
  -0.0010518700    0.0019116100   -0.0011674400
   0.0010503600   -0.0011660500    0.0019206300
   0.0000017100   -0.0007350500   -0.0007293000
  -0.0013884700   -0.0010667000    0.0002226300
  -0.0000015800    0.0008627400    0.0008672400
   0.0014027000    0.0002259900   -0.0010793700
  -0.0010518700   -0.0011674400    0.0019116100
   0.0010503600    0.0019206300   -0.0011660500
   0.0000017100   -0.0007293000   -0.0007350500
  -0.0000000200    0.0003225500    0.0003225500
  -0.0005711900   -0.0001618600   -0.0001618600
   0.0005700600   -0.0001612000   -0.0001612000
   0.0005083300   -0.0344308500   -0.0344308500
   0.0006506800    0.0019844400    0.0019844400
  -0.0006388400    0.0019744200    0.0019744200
   0.0011419200   -0.0005778700    0.0001851900
   0.0000018000    0.0004631500    0.0004635100
  -0.0011438900    0.0001985000   -0.0005695800
   0.0017847500   -0.0012113900    0.0008342100
  -0.0017905500    0.0008389800   -0.0012255700
  -0.0000014000    0.0004654500    0.0004612700
   0.0011419200    0.0001851900   -0.0005778700
   0.0000018000    0.0004635100    0.0004631500
  -0.0011438900   -0.0005695800    0.0001985000
   0.0004964000   -0.0000336600   -0.0000336600
  -0.0004963900   -0.0000324000   -0.0000324000
  -0.0000041400    0.0000686600    0.0000686600
   0.0000046500   -0.0009549700   -0.0009471200
   0.0000005500    0.0010493800    0.0000678300
   0.0000005400    0.0000695000    0.0010466600
   0.0017847500    0.0008342100   -0.0012113900
  -0.0017905500   -0.0012255700    0.0008389800
  -0.0000014000    0.0004612700    0.0004654500
   0.0000046500   -0.0009471200   -0.0009549700
   0.0000005500    0.0000678300    0.0010493800
   0.0000005400    0.0010466600    0.0000695000
   0.0004951000   -0.0000342100   -0.0000342100
   0.0000023600    0.0000686700    0.0000686700
  -0.0004976300   -0.0000318600   -0.0000318600
   0.0008262500    0.0003010000    0.0003010000
  -0.0008226100    0.0003032400    0.0003032400
  -0.0000441200   -0.0022438300   -0.0022438300
   0.0000004500   -0.0005221700   -0.0005224600
  -0.0003851600    0.0004595300    0.0000574200
   0.0003806700    0.0000592900    0.0004560600
   0.0004109400    0.0104938400   -0.0026839600
   0.0000000300    0.0008423700    0.0008390500
  -0.0004084400   -0.0026237300    0.0103798400
   0.0000004500   -0.0005224600   -0.0005221700
  -0.0003851600    0.0000574200    0.0004595300
   0.0003806700    0.0004560600    0.0000592900
   0.0002294500   -0.0001559500   -0.0001559500
  -0.0000009800    0.0003130200    0.0003130200
  -0.0002298400   -0.0001536200   -0.0001536200
   0.0006117600    0.0002277800   -0.0001716200
  -0.0006134200   -0.0001709800    0.0002285100
  -0.0000081400   -0.0000123500    0.0000009000
   0.0004109400   -0.0026839600    0.0104938400
   0.0000000300    0.0008390500    0.0008423700
  -0.0004084400    0.0103798400   -0.0026237300
   0.0006117600   -0.0001716200    0.0002277800
  -0.0006134200    0.0002285100   -0.0001709800
  -0.0000081400    0.0000009000   -0.0000123500
   0.0000364600   -0.0030633100   -0.0030633100
  -0.0019551200    0.0019476500    0.0019476500
   0.0019315600    0.0019275900    0.0019275900