nqpoint: 204    
npath: 4      
segment_nqpoint:
- 51
- 51
- 51
- 51
reciprocal_lattice:
- [  -0.23498689,   0.23498689,   0.23498689 ] # a*
- [   0.23498689,  -0.23498689,   0.23498689 ] # b*
- [   0.23498689,   0.23498689,  -0.23498689 ] # c*
natom: 2      
lattice:
- [     0.000000000000000,     2.127778232747144,     2.127778232747145 ] # a
- [     2.127778232747145,     0.000000000000000,     2.127778232747145 ] # b
- [     2.127778232747145,     2.127778232747144,     0.000000000000000 ] # c
points:
- symbol: Mg # 1
  coordinates: [  0.000000000000000,  0.000000000000000,  0.000000000000000 ]
  mass: 24.305000
- symbol: O  # 2
  coordinates: [  0.500000000000000,  0.500000000000000,  0.500000000000000 ]
  mass: 15.999400
supercell_matrix:
- [   -4,    4,    4 ]
- [    4,   -4,    4 ]
- [    4,    4,   -4 ]

phonon:
- q-position: [    0.0000000,    0.0000000,    0.0000000 ]
  distance:    0.0000000
  band:
  - # 1
    frequency:   -0.0319646099
  - # 2
    frequency:   -0.0319646099
  - # 3
    frequency:   -0.0150678087
  - # 4
    frequency:   11.1914619156
  - # 5
    frequency:   11.1914619156
  - # 6
    frequency:   19.9711296365

- q-position: [    0.0100000,    0.0000000,    0.0000000 ]
  distance:    0.0040701
  band:
  - # 1
    frequency:    0.2277584633
  - # 2
    frequency:    0.2277585071
  - # 3
    frequency:    0.4026210790
  - # 4
    frequency:   11.1911471150
  - # 5
    frequency:   11.1911471151
  - # 6
    frequency:   19.9700800371

- q-position: [    0.0200000,    0.0000000,    0.0000000 ]
  distance:    0.0081402
  band:
  - # 1
    frequency:    0.4585781702
  - # 2
    frequency:    0.4585782568
  - # 3
    frequency:    0.8054253905
  - # 4
    frequency:   11.1902051183
  - # 5
    frequency:   11.1902051188
  - # 6
    frequency:   19.9669298122

- q-position: [    0.0300000,    0.0000000,    0.0000000 ]
  distance:    0.0122103
  band:
  - # 1
    frequency:    0.6880712756
  - # 2
    frequency:    0.6880714045
  - # 3
    frequency:    1.2076576293
  - # 4
    frequency:   11.1886429841
  - # 5
    frequency:   11.1886429851
  - # 6
    frequency:   19.9616746216

- q-position: [    0.0400000,    0.0000000,    0.0000000 ]
  distance:    0.0162804
  band:
  - # 1
    frequency:    0.9165186364
  - # 2
    frequency:    0.9165188066
  - # 3
    frequency:    1.6091517152
  - # 4
    frequency:   11.1864719575
  - # 5
    frequency:   11.1864719593
  - # 6
    frequency:   19.9543070344

- q-position: [    0.0500000,    0.0000000,    0.0000000 ]
  distance:    0.0203505
  band:
  - # 1
    frequency:    1.1437576689
  - # 2
    frequency:    1.1437578790
  - # 3
    frequency:    2.0096880304
  - # 4
    frequency:   11.1837067108
  - # 5
    frequency:   11.1837067136
  - # 6
    frequency:   19.9448162444

- q-position: [    0.0600000,    0.0000000,    0.0000000 ]
  distance:    0.0244206
  band:
  - # 1
    frequency:    1.3695617326
  - # 2
    frequency:    1.3695619810
  - # 3
    frequency:    2.4090412656
  - # 4
    frequency:   11.1803643152
  - # 5
    frequency:   11.1803643192
  - # 6
    frequency:   19.9331876917

- q-position: [    0.0700000,    0.0000000,    0.0000000 ]
  distance:    0.0284906
  band:
  - # 1
    frequency:    1.5936956969
  - # 2
    frequency:    1.5936959817
  - # 3
    frequency:    2.8069878564
  - # 4
    frequency:   11.1764629807
  - # 5
    frequency:   11.1764629861
  - # 6
    frequency:   19.9194026107

- q-position: [    0.0800000,    0.0000000,    0.0000000 ]
  distance:    0.0325607
  band:
  - # 1
    frequency:    1.8159313100
  - # 2
    frequency:    1.8159316289
  - # 3
    frequency:    3.2033082632
  - # 4
    frequency:   11.1720206077
  - # 5
    frequency:   11.1720206148
  - # 6
    frequency:   19.9034375282

- q-position: [    0.0900000,    0.0000000,    0.0000000 ]
  distance:    0.0366308
  band:
  - # 1
    frequency:    2.0360534651
  - # 2
    frequency:    2.0360538156
  - # 3
    frequency:    3.5977879955
  - # 4
    frequency:   11.1670532018
  - # 5
    frequency:   11.1670532106
  - # 6
    frequency:   19.8852637373

- q-position: [    0.1000000,    0.0000000,    0.0000000 ]
  distance:    0.0407009
  band:
  - # 1
    frequency:    2.2538635295
  - # 2
    frequency:    2.2538639090
  - # 3
    frequency:    3.9902181534
  - # 4
    frequency:   11.1615732110
  - # 5
    frequency:   11.1615732216
  - # 6
    frequency:   19.8648467771

- q-position: [    0.1100000,    0.0000000,    0.0000000 ]
  distance:    0.0447710
  band:
  - # 1
    frequency:    2.4691813893
  - # 2
    frequency:    2.4691817947
  - # 3
    frequency:    4.3803956967
  - # 4
    frequency:   11.1555878486
  - # 5
    frequency:   11.1555878613
  - # 6
    frequency:   19.8421459458

- q-position: [    0.1200000,    0.0000000,    0.0000000 ]
  distance:    0.0488411
  band:
  - # 1
    frequency:    2.6818467386
  - # 2
    frequency:    2.6818471670
  - # 3
    frequency:    4.7681235134
  - # 4
    frequency:   11.1490974691
  - # 5
    frequency:   11.1490974839
  - # 6
    frequency:   19.8171138756

- q-position: [    0.1300000,    0.0000000,    0.0000000 ]
  distance:    0.0529112
  band:
  - # 1
    frequency:    2.8917198033
  - # 2
    frequency:    2.8917202515
  - # 3
    frequency:    5.1532103236
  - # 4
    frequency:   11.1420940626
  - # 5
    frequency:   11.1420940795
  - # 6
    frequency:   19.7896961958

- q-position: [    0.1400000,    0.0000000,    0.0000000 ]
  distance:    0.0569813
  band:
  - # 1
    frequency:    3.0986815691
  - # 2
    frequency:    3.0986820337
  - # 3
    frequency:    5.5354704417
  - # 4
    frequency:   11.1345599362
  - # 5
    frequency:   11.1345599554
  - # 6
    frequency:   19.7598313068

- q-position: [    0.1500000,    0.0000000,    0.0000000 ]
  distance:    0.0610514
  band:
  - # 1
    frequency:    3.3026335427
  - # 2
    frequency:    3.3026340205
  - # 3
    frequency:    5.9147234213
  - # 4
    frequency:   11.1264666437
  - # 5
    frequency:   11.1264666652
  - # 6
    frequency:   19.7274502821

- q-position: [    0.1600000,    0.0000000,    0.0000000 ]
  distance:    0.0651215
  band:
  - # 1
    frequency:    3.5034970640
  - # 2
    frequency:    3.5034975516
  - # 3
    frequency:    6.2907936070
  - # 4
    frequency:   11.1177742192
  - # 5
    frequency:   11.1177742429
  - # 6
    frequency:   19.6924769137

- q-position: [    0.1700000,    0.0000000,    0.0000000 ]
  distance:    0.0691916
  band:
  - # 1
    frequency:    3.7012121827
  - # 2
    frequency:    3.7012126766
  - # 3
    frequency:    6.6635096204
  - # 4
    frequency:   11.1084307635
  - # 5
    frequency:   11.1084307894
  - # 6
    frequency:   19.6548279046

- q-position: [    0.1800000,    0.0000000,    0.0000000 ]
  distance:    0.0732617
  band:
  - # 1
    frequency:    3.8957361197
  - # 2
    frequency:    3.8957366166
  - # 3
    frequency:    7.0327038090
  - # 4
    frequency:   11.0983724204
  - # 5
    frequency:   11.0983724484
  - # 6
    frequency:   19.6144132133

- q-position: [    0.1900000,    0.0000000,    0.0000000 ]
  distance:    0.0773318
  band:
  - # 1
    frequency:    4.0870413417
  - # 2
    frequency:    4.0870418383
  - # 3
    frequency:    7.3982116888
  - # 4
    frequency:   11.0875237685
  - # 5
    frequency:   11.0875237985
  - # 6
    frequency:   19.5711365415

- q-position: [    0.2000000,    0.0000000,    0.0000000 ]
  distance:    0.0814018
  band:
  - # 1
    frequency:    4.2751132809
  - # 2
    frequency:    4.2751137741
  - # 3
    frequency:    7.7598714084
  - # 4
    frequency:   11.0757986436
  - # 5
    frequency:   11.0757986755
  - # 6
    frequency:   19.5248959561

- q-position: [    0.2100000,    0.0000000,    0.0000000 ]
  distance:    0.0854719
  band:
  - # 1
    frequency:    4.4599477439
  - # 2
    frequency:    4.4599482307
  - # 3
    frequency:    8.1175232658
  - # 4
    frequency:   11.0631013920
  - # 5
    frequency:   11.0631014255
  - # 6
    frequency:   19.4755846278

- q-position: [    0.2200000,    0.0000000,    0.0000000 ]
  distance:    0.0895420
  band:
  - # 1
    frequency:    4.6415480520
  - # 2
    frequency:    4.6415485296
  - # 3
    frequency:    8.4710093024
  - # 4
    frequency:   11.0493285456
  - # 5
    frequency:   11.0493285805
  - # 6
    frequency:   19.4230916660

- q-position: [    0.2300000,    0.0000000,    0.0000000 ]
  distance:    0.0936121
  band:
  - # 1
    frequency:    4.8199219651
  - # 2
    frequency:    4.8199224308
  - # 3
    frequency:    8.8201729975
  - # 4
    frequency:   11.0343709003
  - # 5
    frequency:   11.0343709364
  - # 6
    frequency:   19.3673030243

- q-position: [    0.2400000,    0.0000000,    0.0000000 ]
  distance:    0.0976822
  band:
  - # 1
    frequency:    4.9950784337
  - # 2
    frequency:    4.9950788851
  - # 3
    frequency:    9.1648590802
  - # 4
    frequency:   11.0181159699
  - # 5
    frequency:   11.0181160069
  - # 6
    frequency:   19.3081024519

- q-position: [    0.2500000,    0.0000000,    0.0000000 ]
  distance:    0.1017523
  band:
  - # 1
    frequency:    5.1670242253
  - # 2
    frequency:    5.1670246602
  - # 3
    frequency:    9.5049134726
  - # 4
    frequency:   11.0004507848
  - # 5
    frequency:   11.0004508223
  - # 6
    frequency:   19.2453724621

- q-position: [    0.2600000,    0.0000000,    0.0000000 ]
  distance:    0.1058224
  band:
  - # 1
    frequency:    5.3357604605
  - # 2
    frequency:    5.3357608771
  - # 3
    frequency:    9.8401833683
  - # 4
    frequency:   10.9812650048
  - # 5
    frequency:   10.9812650426
  - # 6
    frequency:   19.1789952918

- q-position: [    0.2700000,    0.0000000,    0.0000000 ]
  distance:    0.1098925
  band:
  - # 1
    frequency:    5.5012790861
  - # 2
    frequency:    5.5012794826
  - # 3
    frequency:   10.1705174457
  - # 4
    frequency:   10.9604543162
  - # 5
    frequency:   10.9604543539
  - # 6
    frequency:   19.1088538299

- q-position: [    0.2800000,    0.0000000,    0.0000000 ]
  distance:    0.1139626
  band:
  - # 1
    frequency:    5.6635592955
  - # 2
    frequency:    5.6635596706
  - # 3
    frequency:   10.4957662060
  - # 4
    frequency:   10.9379240913
  - # 5
    frequency:   10.9379241286
  - # 6
    frequency:   19.0348324927

- q-position: [    0.2900000,    0.0000000,    0.0000000 ]
  distance:    0.1180327
  band:
  - # 1
    frequency:    5.8225638936
  - # 2
    frequency:    5.8225642460
  - # 3
    frequency:   10.8157824192
  - # 4
    frequency:   10.9135932995
  - # 5
    frequency:   10.9135933360
  - # 6
    frequency:   18.9568180350

- q-position: [    0.3000000,    0.0000000,    0.0000000 ]
  distance:    0.1221028
  band:
  - # 1
    frequency:    5.9782355800
  - # 2
    frequency:    5.9782359090
  - # 3
    frequency:   10.8873986726
  - # 4
    frequency:   10.8873987080
  - # 5
    frequency:   11.1304216507
  - # 6
    frequency:   18.8747002912

- q-position: [    0.3100000,    0.0000000,    0.0000000 ]
  distance:    0.1261729
  band:
  - # 1
    frequency:    6.1304931076
  - # 2
    frequency:    6.1304934126
  - # 3
    frequency:   10.8592991443
  - # 4
    frequency:   10.8592991782
  - # 5
    frequency:   11.4395428309
  - # 6
    frequency:   18.7883728502

- q-position: [    0.3200000,    0.0000000,    0.0000000 ]
  distance:    0.1302430
  band:
  - # 1
    frequency:    6.2792272479
  - # 2
    frequency:    6.2792275285
  - # 3
    frequency:   10.8292806023
  - # 4
    frequency:   10.8292806344
  - # 5
    frequency:   11.7430088201
  - # 6
    frequency:   18.6977336854

- q-position: [    0.3300000,    0.0000000,    0.0000000 ]
  distance:    0.1343130
  band:
  - # 1
    frequency:    6.4242964761
  - # 2
    frequency:    6.4242967323
  - # 3
    frequency:   10.7973610138
  - # 4
    frequency:   10.7973610439
  - # 5
    frequency:   12.0406869051
  - # 6
    frequency:   18.6026857718

- q-position: [    0.3400000,    0.0000000,    0.0000000 ]
  distance:    0.1383831
  band:
  - # 1
    frequency:    6.5655222716
  - # 2
    frequency:    6.5655225035
  - # 3
    frequency:   10.7635959991
  - # 4
    frequency:   10.7635960269
  - # 5
    frequency:   12.3324491428
  - # 6
    frequency:   18.5031377541

- q-position: [    0.3500000,    0.0000000,    0.0000000 ]
  distance:    0.1424532
  band:
  - # 1
    frequency:    6.7026839145
  - # 2
    frequency:    6.7026841224
  - # 3
    frequency:   10.7280849432
  - # 4
    frequency:   10.7280849686
  - # 5
    frequency:   12.6181724394
  - # 6
    frequency:   18.3990047540

- q-position: [    0.3600000,    0.0000000,    0.0000000 ]
  distance:    0.1465233
  band:
  - # 1
    frequency:    6.8355126689
  - # 2
    frequency:    6.8355128535
  - # 3
    frequency:   10.6909777332
  - # 4
    frequency:   10.6909777559
  - # 5
    frequency:   12.8977382066
  - # 6
    frequency:   18.2902094640

- q-position: [    0.3700000,    0.0000000,    0.0000000 ]
  distance:    0.1505934
  band:
  - # 1
    frequency:    6.9636852657
  - # 2
    frequency:    6.9636854278
  - # 3
    frequency:   10.6524821817
  - # 4
    frequency:   10.6524822018
  - # 5
    frequency:   13.1710313628
  - # 6
    frequency:   18.1766837477

- q-position: [    0.3800000,    0.0000000,    0.0000000 ]
  distance:    0.1546635
  band:
  - # 1
    frequency:    7.0868166722
  - # 2
    frequency:    7.0868168127
  - # 3
    frequency:   10.6128721338
  - # 4
    frequency:   10.6128721512
  - # 5
    frequency:   13.4379383188
  - # 6
    frequency:   18.0583711057

- q-position: [    0.3900000,    0.0000000,    0.0000000 ]
  distance:    0.1587336
  band:
  - # 1
    frequency:    7.2044522759
  - # 2
    frequency:    7.2044523959
  - # 3
    frequency:   10.5724961109
  - # 4
    frequency:   10.5724961256
  - # 5
    frequency:   13.6983433578
  - # 6
    frequency:   17.9352305963

- q-position: [    0.4000000,    0.0000000,    0.0000000 ]
  distance:    0.1628037
  band:
  - # 1
    frequency:    7.3160598585
  - # 2
    frequency:    7.3160599592
  - # 3
    frequency:   10.5317861059
  - # 4
    frequency:   10.5317861180
  - # 5
    frequency:   13.9521223904
  - # 6
    frequency:   17.8072432415

- q-position: [    0.4100000,    0.0000000,    0.0000000 ]
  distance:    0.1668738
  band:
  - # 1
    frequency:    7.4210221427
  - # 2
    frequency:    7.4210222255
  - # 3
    frequency:   10.4912657386
  - # 4
    frequency:   10.4912657483
  - # 5
    frequency:   14.1991322239
  - # 6
    frequency:   17.6744227864

- q-position: [    0.4200000,    0.0000000,    0.0000000 ]
  distance:    0.1709439
  band:
  - # 1
    frequency:    7.5186313022
  - # 2
    frequency:    7.5186313685
  - # 3
    frequency:   10.4515563741
  - # 4
    frequency:   10.4515563816
  - # 5
    frequency:   14.4391917525
  - # 6
    frequency:   17.5368344269

- q-position: [    0.4300000,    0.0000000,    0.0000000 ]
  distance:    0.1750140
  band:
  - # 1
    frequency:    7.6080876613
  - # 2
    frequency:    7.6080877128
  - # 3
    frequency:   10.4133789780
  - # 4
    frequency:   10.4133789836
  - # 5
    frequency:   14.6720476689
  - # 6
    frequency:   17.3946289201

- q-position: [    0.4400000,    0.0000000,    0.0000000 ]
  distance:    0.1790841
  band:
  - # 1
    frequency:    7.6885057927
  - # 2
    frequency:    7.6885058310
  - # 3
    frequency:   10.3775484989
  - # 4
    frequency:   10.3775485029
  - # 5
    frequency:   14.8973083358
  - # 6
    frequency:   17.2481084653

- q-position: [    0.4500000,    0.0000000,    0.0000000 ]
  distance:    0.1831542
  band:
  - # 1
    frequency:    7.7589320968
  - # 2
    frequency:    7.7589321237
  - # 3
    frequency:   10.3449566970
  - # 4
    frequency:   10.3449566996
  - # 5
    frequency:   15.1143064094
  - # 6
    frequency:   17.0978637850

- q-position: [    0.4600000,    0.0000000,    0.0000000 ]
  distance:    0.1872243
  band:
  - # 1
    frequency:    7.8183781530
  - # 2
    frequency:    7.8183781704
  - # 3
    frequency:   10.3165391334
  - # 4
    frequency:   10.3165391351
  - # 5
    frequency:   15.3217851961
  - # 6
    frequency:   16.9450874497

- q-position: [    0.4700000,    0.0000000,    0.0000000 ]
  distance:    0.1912943
  band:
  - # 1
    frequency:    7.8658728118
  - # 2
    frequency:    7.8658728217
  - # 3
    frequency:   10.2932233547
  - # 4
    frequency:   10.2932233555
  - # 5
    frequency:   15.5170937199
  - # 6
    frequency:   16.7923784945

- q-position: [    0.4800000,    0.0000000,    0.0000000 ]
  distance:    0.1953644
  band:
  - # 1
    frequency:    7.9005322990
  - # 2
    frequency:    7.9005323034
  - # 3
    frequency:   10.2758590060
  - # 4
    frequency:   10.2758590064
  - # 5
    frequency:   15.6938263127
  - # 6
    frequency:   16.6461025342

- q-position: [    0.4900000,    0.0000000,    0.0000000 ]
  distance:    0.1994345
  band:
  - # 1
    frequency:    7.9216414445
  - # 2
    frequency:    7.9216414456
  - # 3
    frequency:   10.2651367668
  - # 4
    frequency:   10.2651367669
  - # 5
    frequency:   15.8343136441
  - # 6
    frequency:   16.5239004833

- q-position: [    0.5000000,    0.0000000,    0.0000000 ]
  distance:    0.2035046
  band:
  - # 1
    frequency:    7.9287321981
  - # 2
    frequency:    7.9287321981
  - # 3
    frequency:   10.2615099480
  - # 4
    frequency:   10.2615099480
  - # 5
    frequency:   15.8941309480
  - # 6
    frequency:   16.4701801384

- q-position: [    0.5000000,    0.0000000,    0.0000000 ]
  distance:    0.2035046
  band:
  - # 1
    frequency:    7.9287321981
  - # 2
    frequency:    7.9287321981
  - # 3
    frequency:   10.2615099480
  - # 4
    frequency:   10.2615099480
  - # 5
    frequency:   15.8941309480
  - # 6
    frequency:   16.4701801384

- q-position: [    0.5000000,    0.0100000,    0.0000000 ]
  distance:    0.2075747
  band:
  - # 1
    frequency:    7.9283967734
  - # 2
    frequency:    7.9323118265
  - # 3
    frequency:   10.2657861320
  - # 4
    frequency:   10.2680632949
  - # 5
    frequency:   15.8821510031
  - # 6
    frequency:   16.4752534918

- q-position: [    0.5000000,    0.0200000,    0.0000000 ]
  distance:    0.2116448
  band:
  - # 1
    frequency:    7.9274245548
  - # 2
    frequency:    7.9430330948
  - # 3
    frequency:   10.2785510640
  - # 4
    frequency:   10.2876441096
  - # 5
    frequency:   15.8475836112
  - # 6
    frequency:   16.4891198047

- q-position: [    0.5000000,    0.0300000,    0.0000000 ]
  distance:    0.2157149
  band:
  - # 1
    frequency:    7.9259148347
  - # 2
    frequency:    7.9608427923
  - # 3
    frequency:   10.2996172316
  - # 4
    frequency:   10.3200168577
  - # 5
    frequency:   15.7936489036
  - # 6
    frequency:   16.5086154101

- q-position: [    0.5000000,    0.0400000,    0.0000000 ]
  distance:    0.2197850
  band:
  - # 1
    frequency:    7.9240238668
  - # 2
    frequency:    7.9856510610
  - # 3
    frequency:   10.3286827946
  - # 4
    frequency:   10.3647959641
  - # 5
    frequency:   15.7238224552
  - # 6
    frequency:   16.5303599541

- q-position: [    0.5000000,    0.0500000,    0.0000000 ]
  distance:    0.2238551
  band:
  - # 1
    frequency:    7.9219524960
  - # 2
    frequency:    8.0173298151
  - # 3
    frequency:   10.3653460795
  - # 4
    frequency:   10.4214557407
  - # 5
    frequency:   15.6409410539
  - # 6
    frequency:   16.5516523009

- q-position: [    0.5000000,    0.0600000,    0.0000000 ]
  distance:    0.2279252
  band:
  - # 1
    frequency:    7.9199314115
  - # 2
    frequency:    8.0557108412
  - # 3
    frequency:   10.4091232176
  - # 4
    frequency:   10.4893432697
  - # 5
    frequency:   15.5470697217
  - # 6
    frequency:   16.5706058737

- q-position: [    0.5000000,    0.0700000,    0.0000000 ]
  distance:    0.2319953
  band:
  - # 1
    frequency:    7.9182058269
  - # 2
    frequency:    8.1005838067
  - # 3
    frequency:   10.4594670417
  - # 4
    frequency:   10.5676933907
  - # 5
    frequency:   15.4436725759
  - # 6
    frequency:   16.5859808615

- q-position: [    0.5000000,    0.0800000,    0.0000000 ]
  distance:    0.2360654
  band:
  - # 1
    frequency:    7.9170211351
  - # 2
    frequency:    8.1516943717
  - # 3
    frequency:   10.5157855975
  - # 4
    frequency:   10.6556448795
  - # 5
    frequency:   15.3318136370
  - # 6
    frequency:   16.5969872203

- q-position: [    0.5000000,    0.0900000,    0.0000000 ]
  distance:    0.2401355
  band:
  - # 1
    frequency:    7.9166106246
  - # 2
    frequency:    8.2087425315
  - # 3
    frequency:   10.5774590779
  - # 4
    frequency:   10.7522569329
  - # 5
    frequency:   15.2123097534
  - # 6
    frequency:   16.6031363556

- q-position: [    0.5000000,    0.1000000,    0.0000000 ]
  distance:    0.2442055
  band:
  - # 1
    frequency:    7.9171858349
  - # 2
    frequency:    8.2713812360
  - # 3
    frequency:   10.6438544890
  - # 4
    frequency:   10.8565251516
  - # 5
    frequency:   15.0858338034
  - # 6
    frequency:   16.6041434135

- q-position: [    0.5000000,    0.1100000,    0.0000000 ]
  distance:    0.2482756
  band:
  - # 1
    frequency:    7.9189296854
  - # 2
    frequency:    8.3392152413
  - # 3
    frequency:   10.7143377966
  - # 4
    frequency:   10.9673963161
  - # 5
    frequency:   14.9529824223
  - # 6
    frequency:   16.5998660694

- q-position: [    0.5000000,    0.1200000,    0.0000000 ]
  distance:    0.2523457
  band:
  - # 1
    frequency:    7.9219921945
  - # 2
    frequency:    8.4118000699
  - # 3
    frequency:   10.7882836252
  - # 4
    frequency:   11.0837813508
  - # 5
    frequency:   14.8143212205
  - # 6
    frequency:   16.5902670587

- q-position: [    0.5000000,    0.1300000,    0.0000000 ]
  distance:    0.2564158
  band:
  - # 1
    frequency:    7.9264884200
  - # 2
    frequency:    8.4886408830
  - # 3
    frequency:   10.8650827702
  - # 4
    frequency:   11.2045659242
  - # 5
    frequency:   14.6704165455
  - # 6
    frequency:   16.5753917207

- q-position: [    0.5000000,    0.1400000,    0.0000000 ]
  distance:    0.2604859
  band:
  - # 1
    frequency:    7.9324981755
  - # 2
    frequency:    8.5691910138
  - # 3
    frequency:   10.9441478690
  - # 4
    frequency:   11.3286181168
  - # 5
    frequency:   14.5218597910
  - # 6
    frequency:   16.5553550583

- q-position: [    0.5000000,    0.1500000,    0.0000000 ]
  distance:    0.2645560
  band:
  - # 1
    frequency:    7.9400670829
  - # 2
    frequency:    8.6528498534
  - # 3
    frequency:   11.0249175847
  - # 4
    frequency:   11.4547924234
  - # 5
    frequency:   14.3692884615
  - # 6
    frequency:   16.5303349242

- q-position: [    0.5000000,    0.1600000,    0.0000000 ]
  distance:    0.2686261
  band:
  - # 1
    frequency:    7.9492085662
  - # 2
    frequency:    8.7389597388
  - # 3
    frequency:   11.1068596205
  - # 4
    frequency:   11.5819289312
  - # 5
    frequency:   14.2134074743
  - # 6
    frequency:   16.5005692245

- q-position: [    0.5000000,    0.1700000,    0.0000000 ]
  distance:    0.2726962
  band:
  - # 1
    frequency:    7.9599064597
  - # 2
    frequency:    8.8268014452
  - # 3
    frequency:   11.1894728271
  - # 4
    frequency:   11.7088455742
  - # 5
    frequency:   14.0550144798
  - # 6
    frequency:   16.4663557875

- q-position: [    0.5000000,    0.1800000,    0.0000000 ]
  distance:    0.2767663
  band:
  - # 1
    frequency:    7.9721179763
  - # 2
    frequency:    8.9155878508
  - # 3
    frequency:   11.2722886102
  - # 4
    frequency:   11.8343192881
  - # 5
    frequency:   13.8950347164
  - # 6
    frequency:   16.4280539756

- q-position: [    0.5000000,    0.1900000,    0.0000000 ]
  distance:    0.2808364
  band:
  - # 1
    frequency:    7.9857768434
  - # 2
    frequency:    9.0044553334
  - # 3
    frequency:   11.3548717896
  - # 4
    frequency:   11.9570471897
  - # 5
    frequency:   13.7345754400
  - # 6
    frequency:   16.3860873386

- q-position: [    0.5000000,    0.2000000,    0.0000000 ]
  distance:    0.2849065
  band:
  - # 1
    frequency:    8.0007964692
  - # 2
    frequency:    9.0924525129
  - # 3
    frequency:   11.4368210204
  - # 4
    frequency:   12.0755675718
  - # 5
    frequency:   13.5750211972
  - # 6
    frequency:   16.3409466859

- q-position: [    0.5000000,    0.2100000,    0.0000000 ]
  distance:    0.2889766
  band:
  - # 1
    frequency:    8.0170730469
  - # 2
    frequency:    9.1785261506
  - # 3
    frequency:   11.5177688544
  - # 4
    frequency:   12.1880911173
  - # 5
    frequency:   13.4182204463
  - # 6
    frequency:   16.2931929229

- q-position: [    0.5000000,    0.2200000,    0.0000000 ]
  distance:    0.2930467
  band:
  - # 1
    frequency:    8.0344885330
  - # 2
    frequency:    9.2615044836
  - # 3
    frequency:   11.5973814944
  - # 4
    frequency:   12.2921105413
  - # 5
    frequency:   13.2668958958
  - # 6
    frequency:   16.2434588684

- q-position: [    0.5000000,    0.2300000,    0.0000000 ]
  distance:    0.2971167
  band:
  - # 1
    frequency:    8.0529134636
  - # 2
    frequency:    9.3400792461
  - # 3
    frequency:   11.6753582798
  - # 4
    frequency:   12.3834169964
  - # 5
    frequency:   13.1256500413
  - # 6
    frequency:   16.1924490563

- q-position: [    0.5000000,    0.2400000,    0.0000000 ]
  distance:    0.3011868
  band:
  - # 1
    frequency:    8.0722095858
  - # 2
    frequency:    9.4127894319
  - # 3
    frequency:   11.7514309314
  - # 4
    frequency:   12.4535604214
  - # 5
    frequency:   13.0035270094
  - # 6
    frequency:   16.1409362522

- q-position: [    0.5000000,    0.2500000,    0.0000000 ]
  distance:    0.3052569
  band:
  - # 1
    frequency:    8.0922322950
  - # 2
    frequency:    9.4780128839
  - # 3
    frequency:   11.8253625767
  - # 4
    frequency:   12.4853428183
  - # 5
    frequency:   12.9185372550
  - # 6
    frequency:   16.0897531271

- q-position: [    0.5000000,    0.2600000,    0.0000000 ]
  distance:    0.3093270
  band:
  - # 1
    frequency:    8.1128328733
  - # 2
    frequency:    9.5339762646
  - # 3
    frequency:   11.8969465756
  - # 4
    frequency:   12.4600490703
  - # 5
    frequency:   12.8904317517
  - # 6
    frequency:   16.0397773414

- q-position: [    0.5000000,    0.2700000,    0.0000000 ]
  distance:    0.3133971
  band:
  - # 1
    frequency:    8.1338605310
  - # 2
    frequency:    9.5787992368
  - # 3
    frequency:   11.9660051645
  - # 4
    frequency:   12.3890397629
  - # 5
    frequency:   12.9090870971
  - # 6
    frequency:   15.9919083643

- q-position: [    0.5000000,    0.2800000,    0.0000000 ]
  distance:    0.3174672
  band:
  - # 1
    frequency:    8.1551642536
  - # 2
    frequency:    9.6105921269
  - # 3
    frequency:   12.0323879376
  - # 4
    frequency:   12.3015484746
  - # 5
    frequency:   12.9466409234
  - # 6
    frequency:   15.9470349397

- q-position: [    0.5000000,    0.2900000,    0.0000000 ]
  distance:    0.3215373
  band:
  - # 1
    frequency:    8.1765944574
  - # 2
    frequency:    9.6276222192
  - # 3
    frequency:   12.0959701857
  - # 4
    frequency:   12.2155782937
  - # 5
    frequency:   12.9864675024
  - # 6
    frequency:   15.9059934187

- q-position: [    0.5000000,    0.3000000,    0.0000000 ]
  distance:    0.3256074
  band:
  - # 1
    frequency:    8.1980044599
  - # 2
    frequency:    9.6285447712
  - # 3
    frequency:   12.1394169335
  - # 4
    frequency:   12.1566511127
  - # 5
    frequency:   13.0214757411
  - # 6
    frequency:   15.8695193125

- q-position: [    0.5000000,    0.3100000,    0.0000000 ]
  distance:    0.3296775
  band:
  - # 1
    frequency:    8.2192517671
  - # 2
    frequency:    9.6126591861
  - # 3
    frequency:   12.0768977641
  - # 4
    frequency:   12.2143519533
  - # 5
    frequency:   13.0486368184
  - # 6
    frequency:   15.8381970562

- q-position: [    0.5000000,    0.3200000,    0.0000000 ]
  distance:    0.3337476
  band:
  - # 1
    frequency:    8.2401991835
  - # 2
    frequency:    9.5801138843
  - # 3
    frequency:   12.0295228862
  - # 4
    frequency:   12.2690140152
  - # 5
    frequency:   13.0666944343
  - # 6
    frequency:   15.8124153292

- q-position: [    0.5000000,    0.3300000,    0.0000000 ]
  distance:    0.3378177
  band:
  - # 1
    frequency:    8.2607157469
  - # 2
    frequency:    9.5319770585
  - # 3
    frequency:   11.9972510396
  - # 4
    frequency:   12.3205966686
  - # 5
    frequency:   13.0753294205
  - # 6