# epsilon and Z* of atoms 1 4
   2.39936893    0.00000000    0.00000000    0.00000000    2.39936893    0.00000000    0.00000000    0.00000000    2.42679915 
   2.99207351    0.00000000    0.00000000    0.00000000    3.70199421    0.24540060    0.00000000   -0.20960067    3.45262501 
  -1.32348088    0.54639377   -0.38296587    0.50331981   -2.02355297    0.75289236   -0.33886731    0.78408575   -1.72631250
