natom:  120
displacements:
- atom:    1
  displacement:
    [   0.0100000000000000,  0.0000000000000000,  0.0000000000000000 ]
- atom:    1
  displacement:
    [  -0.0100000000000000,  0.0000000000000000,  0.0000000000000000 ]
- atom:    1
  displacement:
    [   0.0000000000000000,  0.0000000000000000,  0.0100000000000000 ]
- atom:   73
  displacement:
    [   0.0100000000000000,  0.0000000000000000,  0.0000000000000000 ]
- atom:   73
  displacement:
    [  -0.0100000000000000,  0.0000000000000000,  0.0000000000000000 ]
- atom:   73
  displacement:
    [   0.0000000000000000,  0.0000000000000000,  0.0100000000000000 ]
- atom:   73
  displacement:
    [   0.0000000000000000,  0.0000000000000000, -0.0100000000000000 ]
lattice:
- [     9.5492567400000006,     0.0000000000000000,     0.0000000000000000 ] # a
- [    -4.7746283800000002,     8.2698989399999991,     0.0000000000000000 ] # b
- [     0.0000000000000000,     0.0000000000000000,    13.0133564899999996 ] # c
atoms:
- symbol: O  # 1
  position: [  0.1666666650000000,  0.1804327800000000,  0.9166666700000000 ]
  mass: 15.999400
- symbol: O  # 2
  position: [  0.6666666649999999,  0.1804327800000000,  0.9166666700000000 ]
  mass: 15.999400
- symbol: O  # 3
  position: [  0.1666666650000000,  0.6804327800000000,  0.9166666700000000 ]
  mass: 15.999400
- symbol: O  # 4
  position: [  0.6666666649999999,  0.6804327800000000,  0.9166666700000000 ]
  mass: 15.999400
- symbol: O  # 5
  position: [  0.3470994450000000,  0.3470994450000000,  0.7500000000000000 ]
  mass: 15.999400
- symbol: O  # 6
  position: [  0.8470994450000000,  0.3470994450000000,  0.7500000000000000 ]
  mass: 15.999400
- symbol: O  # 7
  position: [  0.3470994450000000,  0.8470994450000000,  0.7500000000000000 ]
  mass: 15.999400
- symbol: O  # 8
  position: [  0.8470994450000000,  0.8470994450000000,  0.7500000000000000 ]
  mass: 15.999400
- symbol: O  # 9
  position: [  0.3195672200000000,  0.4862338900000000,  0.9166666700000000 ]
  mass: 15.999400
- symbol: O  # 10
  position: [  0.8195672199999999,  0.4862338900000000,  0.9166666700000000 ]
  mass: 15.999400
- symbol: O  # 11
  position: [  0.3195672200000000,  0.9862338900000001,  0.9166666700000000 ]
  mass: 15.999400
- symbol: O  # 12
  position: [  0.8195672199999999,  0.9862338900000001,  0.9166666700000000 ]
  mass: 15.999400
- symbol: O  # 13
  position: [  0.0137661100000000,  0.3333333350000000,  0.9166666700000000 ]
  mass: 15.999400
- symbol: O  # 14
  position: [  0.5137661100000001,  0.3333333350000000,  0.9166666700000000 ]
  mass: 15.999400
- symbol: O  # 15
  position: [  0.0137661100000000,  0.8333333350000001,  0.9166666700000000 ]
  mass: 15.999400
- symbol: O  # 16
  position: [  0.5137661100000001,  0.8333333350000001,  0.9166666700000000 ]
  mass: 15.999400
- symbol: O  # 17
  position: [  0.1529005550000000,  0.0000000000000000,  0.7500000000000000 ]
  mass: 15.999400
- symbol: O  # 18
  position: [  0.6529005550000000,  0.0000000000000000,  0.7500000000000000 ]
  mass: 15.999400
- symbol: O  # 19
  position: [  0.1529005550000000,  0.5000000000000000,  0.7500000000000000 ]
  mass: 15.999400
- symbol: O  # 20
  position: [  0.6529005550000000,  0.5000000000000000,  0.7500000000000000 ]
  mass: 15.999400
- symbol: O  # 21
  position: [  0.0000000000000000,  0.1529005550000000,  0.7500000000000000 ]
  mass: 15.999400
- symbol: O  # 22
  position: [  0.5000000000000000,  0.1529005550000000,  0.7500000000000000 ]
  mass: 15.999400
- symbol: O  # 23
  position: [  0.0000000000000000,  0.6529005550000000,  0.7500000000000000 ]
  mass: 15.999400
- symbol: O  # 24
  position: [  0.5000000000000000,  0.6529005550000000,  0.7500000000000000 ]
  mass: 15.999400
- symbol: O  # 25
  position: [  0.0000000000000000,  0.3470994450000000,  0.2500000000000000 ]
  mass: 15.999400
- symbol: O  # 26
  position: [  0.5000000000000000,  0.3470994450000000,  0.2500000000000000 ]
  mass: 15.999400
- symbol: O  # 27
  position: [  0.0000000000000000,  0.8470994450000000,  0.2500000000000000 ]
  mass: 15.999400
- symbol: O  # 28
  position: [  0.5000000000000000,  0.8470994450000000,  0.2500000000000000 ]
  mass: 15.999400
- symbol: O  # 29
  position: [  0.1804327800000000,  0.0137661100000000,  0.0833333300000000 ]
  mass: 15.999400
- symbol: O  # 30
  position: [  0.6804327800000000,  0.0137661100000000,  0.0833333300000000 ]
  mass: 15.999400
- symbol: O  # 31
  position: [  0.1804327800000000,  0.5137661100000001,  0.0833333300000000 ]
  mass: 15.999400
- symbol: O  # 32
  position: [  0.6804327800000000,  0.5137661100000001,  0.0833333300000000 ]
  mass: 15.999400
- symbol: O  # 33
  position: [  0.1529005550000000,  0.1529005550000000,  0.2500000000000000 ]
  mass: 15.999400
- symbol: O  # 34
  position: [  0.6529005550000000,  0.1529005550000000,  0.2500000000000000 ]
  mass: 15.999400
- symbol: O  # 35
  position: [  0.1529005550000000,  0.6529005550000000,  0.2500000000000000 ]
  mass: 15.999400
- symbol: O  # 36
  position: [  0.6529005550000000,  0.6529005550000000,  0.2500000000000000 ]
  mass: 15.999400
- symbol: O  # 37
  position: [  0.3470994450000000,  0.0000000000000000,  0.2500000000000000 ]
  mass: 15.999400
- symbol: O  # 38
  position: [  0.8470994450000000,  0.0000000000000000,  0.2500000000000000 ]
  mass: 15.999400
- symbol: O  # 39
  position: [  0.3470994450000000,  0.5000000000000000,  0.2500000000000000 ]
  mass: 15.999400
- symbol: O  # 40
  position: [  0.8470994450000000,  0.5000000000000000,  0.2500000000000000 ]
  mass: 15.999400
- symbol: O  # 41
  position: [  0.4862338900000000,  0.1666666650000000,  0.0833333300000000 ]
  mass: 15.999400
- symbol: O  # 42
  position: [  0.9862338900000001,  0.1666666650000000,  0.0833333300000000 ]
  mass: 15.999400
- symbol: O  # 43
  position: [  0.4862338900000000,  0.6666666649999999,  0.0833333300000000 ]
  mass: 15.999400
- symbol: O  # 44
  position: [  0.9862338900000001,  0.6666666649999999,  0.0833333300000000 ]
  mass: 15.999400
- symbol: O  # 45
  position: [  0.3333333350000000,  0.3195672200000000,  0.0833333300000000 ]
  mass: 15.999400
- symbol: O  # 46
  position: [  0.8333333350000001,  0.3195672200000000,  0.0833333300000000 ]
  mass: 15.999400
- symbol: O  # 47
  position: [  0.3333333350000000,  0.8195672199999999,  0.0833333300000000 ]
  mass: 15.999400
- symbol: O  # 48
  position: [  0.8333333350000001,  0.8195672199999999,  0.0833333300000000 ]
  mass: 15.999400
- symbol: O  # 49
  position: [  0.3333333350000000,  0.0137661100000000,  0.5833333300000000 ]
  mass: 15.999400
- symbol: O  # 50
  position: [  0.8333333350000001,  0.0137661100000000,  0.5833333300000000 ]
  mass: 15.999400
- symbol: O  # 51
  position: [  0.3333333350000000,  0.5137661100000001,  0.5833333300000000 ]
  mass: 15.999400
- symbol: O  # 52
  position: [  0.8333333350000001,  0.5137661100000001,  0.5833333300000000 ]
  mass: 15.999400
- symbol: O  # 53
  position: [  0.0137661100000000,  0.1804327800000000,  0.4166666700000000 ]
  mass: 15.999400
- symbol: O  # 54
  position: [  0.5137661100000001,  0.1804327800000000,  0.4166666700000000 ]
  mass: 15.999400
- symbol: O  # 55
  position: [  0.0137661100000000,  0.6804327800000000,  0.4166666700000000 ]
  mass: 15.999400
- symbol: O  # 56
  position: [  0.5137661100000001,  0.6804327800000000,  0.4166666700000000 ]
  mass: 15.999400
- symbol: O  # 57
  position: [  0.4862338900000000,  0.3195672200000000,  0.5833333300000000 ]
  mass: 15.999400
- symbol: O  # 58
  position: [  0.9862338900000001,  0.3195672200000000,  0.5833333300000000 ]
  mass: 15.999400
- symbol: O  # 59
  position: [  0.4862338900000000,  0.8195672199999999,  0.5833333300000000 ]
  mass: 15.999400
- symbol: O  # 60
  position: [  0.9862338900000001,  0.8195672199999999,  0.5833333300000000 ]
  mass: 15.999400
- symbol: O  # 61
  position: [  0.1804327800000000,  0.1666666650000000,  0.5833333300000000 ]
  mass: 15.999400
- symbol: O  # 62
  position: [  0.6804327800000000,  0.1666666650000000,  0.5833333300000000 ]
  mass: 15.999400
- symbol: O  # 63
  position: [  0.1804327800000000,  0.6666666649999999,  0.5833333300000000 ]
  mass: 15.999400
- symbol: O  # 64
  position: [  0.6804327800000000,  0.6666666649999999,  0.5833333300000000 ]
  mass: 15.999400
- symbol: O  # 65
  position: [  0.3195672200000000,  0.3333333350000000,  0.4166666700000000 ]
  mass: 15.999400
- symbol: O  # 66
  position: [  0.8195672199999999,  0.3333333350000000,  0.4166666700000000 ]
  mass: 15.999400
- symbol: O  # 67
  position: [  0.3195672200000000,  0.8333333350000001,  0.4166666700000000 ]
  mass: 15.999400
- symbol: O  # 68
  position: [  0.8195672199999999,  0.8333333350000001,  0.4166666700000000 ]
  mass: 15.999400
- symbol: O  # 69
  position: [  0.1666666650000000,  0.4862338900000000,  0.4166666700000000 ]
  mass: 15.999400
- symbol: O  # 70
  position: [  0.6666666649999999,  0.4862338900000000,  0.4166666700000000 ]
  mass: 15.999400
- symbol: O  # 71
  position: [  0.1666666650000000,  0.9862338900000001,  0.4166666700000000 ]
  mass: 15.999400
- symbol: O  # 72
  position: [  0.6666666649999999,  0.9862338900000001,  0.4166666700000000 ]
  mass: 15.999400
- symbol: Al # 73
  position: [  0.3333333350000000,  0.1666666650000000,  0.6854228700000000 ]
  mass: 26.981539
- symbol: Al # 74
  position: [  0.8333333350000001,  0.1666666650000000,  0.6854228700000000 ]
  mass: 26.981539
- symbol: Al # 75
  position: [  0.3333333350000000,  0.6666666649999999,  0.6854228700000000 ]
  mass: 26.981539
- symbol: Al # 76
  position: [  0.8333333350000001,  0.6666666649999999,  0.6854228700000000 ]
  mass: 26.981539
- symbol: Al # 77
  position: [  0.1666666650000000,  0.3333333350000000,  0.8145771300000000 ]
  mass: 26.981539
- symbol: Al # 78
  position: [  0.6666666649999999,  0.3333333350000000,  0.8145771300000000 ]
  mass: 26.981539
- symbol: Al # 79
  position: [  0.1666666650000000,  0.8333333350000001,  0.8145771300000000 ]
  mass: 26.981539
- symbol: Al # 80
  position: [  0.6666666649999999,  0.8333333350000001,  0.8145771300000000 ]
  mass: 26.981539
- symbol: Al # 81
  position: [  0.0000000000000000,  0.0000000000000000,  0.8520895400000000 ]
  mass: 26.981539
- symbol: Al # 82
  position: [  0.5000000000000000,  0.0000000000000000,  0.8520895400000000 ]
  mass: 26.981539
- symbol: Al # 83
  position: [  0.0000000000000000,  0.5000000000000000,  0.8520895400000000 ]
  mass: 26.981539
- symbol: Al # 84
  position: [  0.5000000000000000,  0.5000000000000000,  0.8520895400000000 ]
  mass: 26.981539
- symbol: Al # 85
  position: [  0.3333333350000000,  0.1666666650000000,  0.9812437899999999 ]
  mass: 26.981539
- symbol: Al # 86
  position: [  0.8333333350000001,  0.1666666650000000,  0.9812437899999999 ]
  mass: 26.981539
- symbol: Al # 87
  position: [  0.3333333350000000,  0.6666666649999999,  0.9812437899999999 ]
  mass: 26.981539
- symbol: Al # 88
  position: [  0.8333333350000001,  0.6666666649999999,  0.9812437899999999 ]
  mass: 26.981539
- symbol: Al # 89
  position: [  0.1666666650000000,  0.3333333350000000,  0.0187562100000000 ]
  mass: 26.981539
- symbol: Al # 90
  position: [  0.6666666649999999,  0.3333333350000000,  0.0187562100000000 ]
  mass: 26.981539
- symbol: Al # 91
  position: [  0.1666666650000000,  0.8333333350000001,  0.0187562100000000 ]
  mass: 26.981539
- symbol: Al # 92
  position: [  0.6666666649999999,  0.8333333350000001,  0.0187562100000000 ]
  mass: 26.981539
- symbol: Al # 93
  position: [  0.0000000000000000,  0.0000000000000000,  0.1479104600000000 ]
  mass: 26.981539
- symbol: Al # 94
  position: [  0.5000000000000000,  0.0000000000000000,  0.1479104600000000 ]
  mass: 26.981539
- symbol: Al # 95
  position: [  0.0000000000000000,  0.5000000000000000,  0.1479104600000000 ]
  mass: 26.981539
- symbol: Al # 96
  position: [  0.5000000000000000,  0.5000000000000000,  0.1479104600000000 ]
  mass: 26.981539
- symbol: Al # 97
  position: [  0.3333333350000000,  0.1666666650000000,  0.1854228700000000 ]
  mass: 26.981539
- symbol: Al # 98
  position: [  0.8333333350000001,  0.1666666650000000,  0.1854228700000000 ]
  mass: 26.981539
- symbol: Al # 99
  position: [  0.3333333350000000,  0.6666666649999999,  0.1854228700000000 ]
  mass: 26.981539
- symbol: Al # 100
  position: [  0.8333333350000001,  0.6666666649999999,  0.1854228700000000 ]
  mass: 26.981539
- symbol: Al # 101
  position: [  0.1666666650000000,  0.3333333350000000,  0.3145771300000000 ]
  mass: 26.981539
- symbol: Al # 102
  position: [  0.6666666649999999,  0.3333333350000000,  0.3145771300000000 ]
  mass: 26.981539
- symbol: Al # 103
  position: [  0.1666666650000000,  0.8333333350000001,  0.3145771300000000 ]
  mass: 26.981539
- symbol: Al # 104
  position: [  0.6666666649999999,  0.8333333350000001,  0.3145771300000000 ]
  mass: 26.981539
- symbol: Al # 105
  position: [  0.0000000000000000,  0.0000000000000000,  0.3520895400000000 ]
  mass: 26.981539
- symbol: Al # 106
  position: [  0.5000000000000000,  0.0000000000000000,  0.3520895400000000 ]
  mass: 26.981539
- symbol: Al # 107
  position: [  0.0000000000000000,  0.5000000000000000,  0.3520895400000000 ]
  mass: 26.981539
- symbol: Al # 108
  position: [  0.5000000000000000,  0.5000000000000000,  0.3520895400000000 ]
  mass: 26.981539
- symbol: Al # 109
  position: [  0.3333333350000000,  0.1666666650000000,  0.4812437900000000 ]
  mass: 26.981539
- symbol: Al # 110
  position: [  0.8333333350000001,  0.1666666650000000,  0.4812437900000000 ]
  mass: 26.981539
- symbol: Al # 111
  position: [  0.3333333350000000,  0.6666666649999999,  0.4812437900000000 ]
  mass: 26.981539
- symbol: Al # 112
  position: [  0.8333333350000001,  0.6666666649999999,  0.4812437900000000 ]
  mass: 26.981539
- symbol: Al # 113
  position: [  0.1666666650000000,  0.3333333350000000,  0.5187562100000001 ]
  mass: 26.981539
- symbol: Al # 114
  position: [  0.6666666649999999,  0.3333333350000000,  0.5187562100000001 ]
  mass: 26.981539
- symbol: Al # 115
  position: [  0.1666666650000000,  0.8333333350000001,  0.5187562100000001 ]
  mass: 26.981539
- symbol: Al # 116
  position: [  0.6666666649999999,  0.8333333350000001,  0.5187562100000001 ]
  mass: 26.981539
- symbol: Al # 117
  position: [  0.0000000000000000,  0.0000000000000000,  0.6479104600000000 ]
  mass: 26.981539
- symbol: Al # 118
  position: [  0.5000000000000000,  0.0000000000000000,  0.6479104600000000 ]
  mass: 26.981539
- symbol: Al # 119
  position: [  0.0000000000000000,  0.5000000000000000,  0.6479104600000000 ]
  mass: 26.981539
- symbol: Al # 120
  position: [  0.5000000000000000,  0.5000000000000000,  0.6479104600000000 ]
  mass: 26.981539