# epsilon and Z* of atoms 1 2
   2.25779632    0.00000000    0.00000000    0.00000000    2.25779632    0.00000000    0.00000000    0.00000000    2.25779632 
   2.36025486    0.00000000    0.00000000    0.00000000    2.36025486    0.00000000    0.00000000    0.00000000    2.36025486 
  -1.18012743    0.00000000    0.00000000    0.00000000   -1.18012743    0.00000000    0.00000000    0.00000000   -1.18012743 
