64   
2    

1    
  0.0100000000000000   0.0000000000000000   0.0000000000000000
  -0.0211599100    0.0000000000   -0.0000000000
   0.0119868200    0.0000000000   -0.0000000000
   0.0007314900    0.0000000000   -0.0000000000
   0.0004931000    0.0000000000   -0.0000000000
   0.0007314900    0.0000000000   -0.0000000000
   0.0004931000    0.0000000000   -0.0000000000
  -0.0001877800    0.0000000000   -0.0000000000
   0.0001892100    0.0000000000   -0.0000000000
   0.0004104700    0.0032874100   -0.0000000000
   0.0004119100   -0.0032586200   -0.0000000000
   0.0004104700   -0.0032874100   -0.0000000000
   0.0004119100    0.0032586200   -0.0000000000
   0.0000164100    0.0001328200   -0.0000000000
   0.0000197200   -0.0001314700   -0.0000000000
   0.0000164100   -0.0001328200   -0.0000000000
   0.0000197200    0.0001314700   -0.0000000000
   0.0004104700    0.0000000000    0.0032874100
   0.0004119100    0.0000000000   -0.0032586200
   0.0000164100    0.0000000000    0.0001328200
   0.0000197200    0.0000000000   -0.0001314700
   0.0004104700    0.0000000000   -0.0032874100
   0.0004119100    0.0000000000    0.0032586200
   0.0000164100    0.0000000000   -0.0001328200
   0.0000197200    0.0000000000    0.0001314700
  -0.0003880200   -0.0000038300   -0.0000038300
   0.0004857500    0.0000001300    0.0000001300
  -0.0003880200    0.0000038300   -0.0000038300
   0.0004857500   -0.0000001300    0.0000001300
  -0.0003880200   -0.0000038300    0.0000038300
   0.0004857500    0.0000001300   -0.0000001300
  -0.0003880200    0.0000038300    0.0000038300
   0.0004857500   -0.0000001300   -0.0000001300
   0.0006536400    0.0000000000   -0.0000119700
  -0.0009284800    0.0000000000    0.0000030000
   0.0000792300    0.0000000000    0.0000018700
  -0.0002174600    0.0000000000   -0.0000002200
   0.0006536400    0.0000000000    0.0000119700
  -0.0009284800    0.0000000000   -0.0000030000
   0.0000792300    0.0000000000   -0.0000018700
  -0.0002174600    0.0000000000    0.0000002200
   0.0035034500    0.0000000000   -0.0000000000
   0.0029209100    0.0000000000   -0.0000000000
  -0.0002212400    0.0000000000   -0.0000000000
  -0.0002234500    0.0000000000   -0.0000000000
  -0.0002212400    0.0000000000   -0.0000000000
  -0.0002234500    0.0000000000   -0.0000000000
  -0.0000161900    0.0000000000   -0.0000000000
  -0.0000178000    0.0000000000   -0.0000000000
   0.0006536400   -0.0000119700   -0.0000000000
  -0.0009284800    0.0000030000   -0.0000000000
   0.0006536400    0.0000119700   -0.0000000000
  -0.0009284800   -0.0000030000   -0.0000000000
   0.0000792300    0.0000018700   -0.0000000000
  -0.0002174600   -0.0000002200   -0.0000000000
   0.0000792300   -0.0000018700   -0.0000000000
  -0.0002174600    0.0000002200   -0.0000000000
  -0.0001180400   -0.0002236100   -0.0002236100
  -0.0001197600    0.0002218700    0.0002218700
  -0.0001180400    0.0002236100   -0.0002236100
  -0.0001197600   -0.0002218700    0.0002218700
  -0.0001180400   -0.0002236100    0.0002236100
  -0.0001197600    0.0002218700   -0.0002218700
  -0.0001180400    0.0002236100    0.0002236100
  -0.0001197600   -0.0002218700   -0.0002218700

33   
  0.0100000000000000   0.0000000000000000   0.0000000000000000
   0.0006531200    0.0000000000    0.0000021900
  -0.0009284200    0.0000000000    0.0000044100
   0.0000796900    0.0000000000   -0.0000034000
  -0.0002180600    0.0000000000    0.0000006500
   0.0006531200    0.0000000000   -0.0000021900
  -0.0009284200    0.0000000000   -0.0000044100
   0.0000796900    0.0000000000    0.0000034000
  -0.0002180600    0.0000000000   -0.0000006500
  -0.0001168400   -0.0002243000    0.0002243000
  -0.0001226100    0.0002222500   -0.0002222500
  -0.0001168400    0.0002243000    0.0002243000
  -0.0001226100   -0.0002222500   -0.0002222500
  -0.0001168400   -0.0002243000   -0.0002243000
  -0.0001226100    0.0002222500    0.0002222500
  -0.0001168400    0.0002243000   -0.0002243000
  -0.0001226100   -0.0002222500    0.0002222500
   0.0034928500    0.0000000000    0.0000000000
   0.0029292600    0.0000000000    0.0000000000
  -0.0002201700    0.0000000000    0.0000000000
  -0.0002265900    0.0000000000    0.0000000000
  -0.0002201700    0.0000000000    0.0000000000
  -0.0002265900    0.0000000000    0.0000000000
  -0.0000147300    0.0000000000    0.0000000000
  -0.0000173000    0.0000000000    0.0000000000
   0.0006531200   -0.0000021900    0.0000000000
  -0.0009284200   -0.0000044100    0.0000000000
   0.0006531200    0.0000021900    0.0000000000
  -0.0009284200    0.0000044100    0.0000000000
   0.0000796900    0.0000034000    0.0000000000
  -0.0002180600   -0.0000006500    0.0000000000
   0.0000796900   -0.0000034000    0.0000000000
  -0.0002180600    0.0000006500    0.0000000000
  -0.0287109300    0.0000000000    0.0000000000
   0.0125486900    0.0000000000    0.0000000000
   0.0005682500    0.0000000000    0.0000000000
   0.0001940600    0.0000000000    0.0000000000
   0.0005682500    0.0000000000    0.0000000000
   0.0001940600    0.0000000000    0.0000000000
  -0.0000227900    0.0000000000    0.0000000000
   0.0001209900    0.0000000000    0.0000000000
   0.0011159700    0.0000000000   -0.0010037900
   0.0011125700    0.0000000000    0.0009842500
   0.0001132300    0.0000000000   -0.0001122700
   0.0001153700    0.0000000000    0.0001107500
   0.0011159700    0.0000000000    0.0010037900
   0.0011125700    0.0000000000   -0.0009842500
   0.0001132300    0.0000000000    0.0001122700
   0.0001153700    0.0000000000   -0.0001107500
   0.0001205400   -0.0000024700    0.0000024700
   0.0003361500    0.0000002700   -0.0000002700
   0.0001205400    0.0000024700    0.0000024700
   0.0003361500   -0.0000002700   -0.0000002700
   0.0001205400   -0.0000024700   -0.0000024700
   0.0003361500    0.0000002700    0.0000002700
   0.0001205400    0.0000024700   -0.0000024700
   0.0003361500   -0.0000002700    0.0000002700
   0.0011159700    0.0010037900    0.0000000000
   0.0011125700   -0.0009842500    0.0000000000
   0.0011159700   -0.0010037900    0.0000000000
   0.0011125700    0.0009842500    0.0000000000
   0.0001132300    0.0001122700    0.0000000000
   0.0001153700   -0.0001107500    0.0000000000
   0.0001132300   -0.0001122700    0.0000000000
   0.0001153700    0.0001107500    0.0000000000
