64   
2    

1    
  0.0100000000000000   0.0000000000000000   0.0000000000000000
  -0.0246904300    0.0000000000    0.0000000000
   0.0130024100    0.0000000000    0.0000000000
   0.0004721200    0.0000000000    0.0000000000
   0.0008142600    0.0000000000    0.0000000000
   0.0004721200    0.0000000000    0.0000000000
   0.0008142600    0.0000000000    0.0000000000
  -0.0002834500    0.0000000000    0.0000000000
   0.0003056400    0.0000000000    0.0000000000
   0.0007306200    0.0046453100    0.0000000000
   0.0007323800   -0.0046020400    0.0000000000
   0.0007306200   -0.0046453100    0.0000000000
   0.0007323800    0.0046020400    0.0000000000
   0.0000017100    0.0002256900    0.0000000000
   0.0000068700   -0.0002238500    0.0000000000
   0.0000017100   -0.0002256900    0.0000000000
   0.0000068700    0.0002238500    0.0000000000
   0.0007306200    0.0000000000    0.0046453100
   0.0007323800    0.0000000000   -0.0046020400
   0.0000017100    0.0000000000    0.0002256900
   0.0000068700    0.0000000000   -0.0002238500
   0.0007306200    0.0000000000   -0.0046453100
   0.0007323800    0.0000000000    0.0046020400
   0.0000017100    0.0000000000   -0.0002256900
   0.0000068700    0.0000000000    0.0002238500
  -0.0007155800   -0.0000063100   -0.0000063100
   0.0007166500    0.0000005700    0.0000005700
  -0.0007155800    0.0000063100   -0.0000063100
   0.0007166500   -0.0000005700    0.0000005700
  -0.0007155800   -0.0000063100    0.0000063100
   0.0007166500    0.0000005700   -0.0000005700
  -0.0007155800    0.0000063100    0.0000063100
   0.0007166500   -0.0000005700   -0.0000005700
   0.0015455900    0.0000000000   -0.0000070500
  -0.0010999600    0.0000000000    0.0000031000
   0.0002066000    0.0000000000    0.0000028700
  -0.0003244300    0.0000000000   -0.0000002400
   0.0015455900    0.0000000000    0.0000070500
  -0.0010999600    0.0000000000   -0.0000031000
   0.0002066000    0.0000000000   -0.0000028700
  -0.0003244300    0.0000000000    0.0000002400
   0.0022963900    0.0000000000    0.0000000000
   0.0016757700    0.0000000000    0.0000000000
  -0.0003052400    0.0000000000    0.0000000000
  -0.0003110200    0.0000000000    0.0000000000
  -0.0003052400    0.0000000000    0.0000000000
  -0.0003110200    0.0000000000    0.0000000000
  -0.0000145900    0.0000000000    0.0000000000
  -0.0000172700    0.0000000000    0.0000000000
   0.0015455900   -0.0000070500    0.0000000000
  -0.0010999600    0.0000031000    0.0000000000
   0.0015455900    0.0000070500    0.0000000000
  -0.0010999600   -0.0000031000    0.0000000000
   0.0002066000    0.0000028700    0.0000000000
  -0.0003244300   -0.0000002400    0.0000000000
   0.0002066000   -0.0000028700    0.0000000000
  -0.0003244300    0.0000002400    0.0000000000
  -0.0001001200   -0.0003828700   -0.0003828700
  -0.0001040000    0.0003796500    0.0003796500
  -0.0001001200    0.0003828700   -0.0003828700
  -0.0001040000   -0.0003796500    0.0003796500
  -0.0001001200   -0.0003828700    0.0003828700
  -0.0001040000    0.0003796500   -0.0003796500
  -0.0001001200    0.0003828700    0.0003828700
  -0.0001040000   -0.0003796500   -0.0003796500

33   
  0.0100000000000000   0.0000000000000000   0.0000000000000000
   0.0015484600    0.0000000000   -0.0000050800
  -0.0010986300    0.0000000000    0.0000065900
   0.0002082400    0.0000000000   -0.0000053300
  -0.0003239900    0.0000000000    0.0000010200
   0.0015484600    0.0000000000    0.0000050800
  -0.0010986300    0.0000000000   -0.0000065900
   0.0002082400    0.0000000000    0.0000053300
  -0.0003239900    0.0000000000   -0.0000010200
  -0.0000962900   -0.0003833700    0.0003833700
  -0.0001058000    0.0003791800   -0.0003791800
  -0.0000962900    0.0003833700    0.0003833700
  -0.0001058000   -0.0003791800   -0.0003791800
  -0.0000962900   -0.0003833700   -0.0003833700
  -0.0001058000    0.0003791800    0.0003791800
  -0.0000962900    0.0003833700   -0.0003833700
  -0.0001058000   -0.0003791800    0.0003791800
   0.0022801800    0.0000000000   -0.0000000000
   0.0016947000    0.0000000000   -0.0000000000
  -0.0003025200    0.0000000000   -0.0000000000
  -0.0003144100    0.0000000000   -0.0000000000
  -0.0003025200    0.0000000000   -0.0000000000
  -0.0003144100    0.0000000000   -0.0000000000
  -0.0000128000    0.0000000000   -0.0000000000
  -0.0000170600    0.0000000000   -0.0000000000
   0.0015484600    0.0000050800   -0.0000000000
  -0.0010986300   -0.0000065900   -0.0000000000
   0.0015484600   -0.0000050800   -0.0000000000
  -0.0010986300    0.0000065900   -0.0000000000
   0.0002082400    0.0000053300   -0.0000000000
  -0.0003239900   -0.0000010200   -0.0000000000
   0.0002082400   -0.0000053300   -0.0000000000
  -0.0003239900    0.0000010200   -0.0000000000
  -0.0294196500    0.0000000000   -0.0000000000
   0.0149060600    0.0000000000   -0.0000000000
   0.0006658700    0.0000000000   -0.0000000000
   0.0003589900    0.0000000000   -0.0000000000
   0.0006658700    0.0000000000   -0.0000000000
   0.0003589900    0.0000000000   -0.0000000000
  -0.0000859000    0.0000000000   -0.0000000000
   0.0001828600    0.0000000000   -0.0000000000
   0.0009335900    0.0000000000   -0.0015833100
   0.0009326500    0.0000000000    0.0015547300
   0.0000889400    0.0000000000   -0.0001837200
   0.0000931800    0.0000000000    0.0001810400
   0.0009335900    0.0000000000    0.0015833100
   0.0009326500    0.0000000000   -0.0015547300
   0.0000889400    0.0000000000    0.0001837200
   0.0000931800    0.0000000000   -0.0001810400
  -0.0000966000   -0.0000045900    0.0000045900
   0.0003301800    0.0000008200   -0.0000008200
  -0.0000966000    0.0000045900    0.0000045900
   0.0003301800   -0.0000008200   -0.0000008200
  -0.0000966000   -0.0000045900   -0.0000045900
   0.0003301800    0.0000008200    0.0000008200
  -0.0000966000    0.0000045900   -0.0000045900
   0.0003301800   -0.0000008200    0.0000008200
   0.0009335900    0.0015833100   -0.0000000000
   0.0009326500   -0.0015547300   -0.0000000000
   0.0009335900   -0.0015833100   -0.0000000000
   0.0009326500    0.0015547300   -0.0000000000
   0.0000889400    0.0001837200   -0.0000000000
   0.0000931800   -0.0001810400   -0.0000000000
   0.0000889400   -0.0001837200   -0.0000000000
   0.0000931800    0.0001810400   -0.0000000000
