phonopy:
  version: 1.13.2
  configuration:
    dim: "3 3 2"
    create_displacements: ".true."

supercell_matrix:
- [   3,   0,   0 ]
- [   0,   3,   0 ]
- [   0,   0,   2 ]

space_group:
  type: "P6_3mc"
  number: 186
  Hall_symbol: "P 6c -2c"

primitive_cell:
  lattice:
  - [     3.247392495917922,     0.000000000000000,     0.000000000000000 ] # a
  - [    -1.623696247958961,     2.812324556057647,     0.000000000000000 ] # b
  - [     0.000000000000000,     0.000000000000000,     5.280079245447717 ] # c
  points:
  - symbol: Ga # 1
    coordinates: [  0.333333000000003,  0.666666999999997,  0.998941289670292 ]
    mass: 69.723000
  - symbol: Ga # 2
    coordinates: [  0.666666999999997,  0.333333000000003,  0.498941289670292 ]
    mass: 69.723000
  - symbol: N  # 3
    coordinates: [  0.333333000000003,  0.666666999999997,  0.376058710329708 ]
    mass: 14.006700
  - symbol: N  # 4
    coordinates: [  0.666666999999997,  0.333333000000003,  0.876058710329708 ]
    mass: 14.006700
  reciprocal_lattice: # without 2pi
  - [     0.307939370204566,     0.177788868259539,     0.000000000000000 ] # a*
  - [     0.000000000000000,     0.355577736519078,     0.000000000000000 ] # b*
  - [     0.000000000000000,     0.000000000000000,     0.189391096897298 ] # c*

unit_cell:
  lattice:
  - [     3.247392495917922,     0.000000000000000,     0.000000000000000 ] # a
  - [    -1.623696247958961,     2.812324556057647,     0.000000000000000 ] # b
  - [     0.000000000000000,     0.000000000000000,     5.280079245447717 ] # c
  points:
  - symbol: Ga # 1
    coordinates: [  0.333333000000003,  0.666666999999997,  0.998941289670292 ]
    mass: 69.723000
    reduced_to: 1
  - symbol: Ga # 2
    coordinates: [  0.666666999999997,  0.333333000000003,  0.498941289670292 ]
    mass: 69.723000
    reduced_to: 2
  - symbol: N  # 3
    coordinates: [  0.333333000000003,  0.666666999999997,  0.376058710329708 ]
    mass: 14.006700
    reduced_to: 3
  - symbol: N  # 4
    coordinates: [  0.666666999999997,  0.333333000000003,  0.876058710329708 ]
    mass: 14.006700
    reduced_to: 4

supercell:
  lattice:
  - [     9.742177487753768,     0.000000000000000,     0.000000000000000 ] # a
  - [    -4.871088743876884,     8.436973668172943,     0.000000000000000 ] # b
  - [     0.000000000000000,     0.000000000000000,    10.560158490895434 ] # c
  points:
  - symbol: Ga # 1
    coordinates: [  0.111111000000001,  0.222222333333332,  0.499470644835146 ]
    mass: 69.723000
    reduced_to: 1
  - symbol: Ga # 2
    coordinates: [  0.444444333333334,  0.222222333333332,  0.499470644835146 ]
    mass: 69.723000
    reduced_to: 1
  - symbol: Ga # 3
    coordinates: [  0.777777666666668,  0.222222333333332,  0.499470644835146 ]
    mass: 69.723000
    reduced_to: 1
  - symbol: Ga # 4
    coordinates: [  0.111111000000001,  0.555555666666666,  0.499470644835146 ]
    mass: 69.723000
    reduced_to: 1
  - symbol: Ga # 5
    coordinates: [  0.444444333333334,  0.555555666666666,  0.499470644835146 ]
    mass: 69.723000
    reduced_to: 1
  - symbol: Ga # 6
    coordinates: [  0.777777666666668,  0.555555666666666,  0.499470644835146 ]
    mass: 69.723000
    reduced_to: 1
  - symbol: Ga # 7
    coordinates: [  0.111111000000001,  0.888888999999999,  0.499470644835146 ]
    mass: 69.723000
    reduced_to: 1
  - symbol: Ga # 8
    coordinates: [  0.444444333333334,  0.888888999999999,  0.499470644835146 ]
    mass: 69.723000
    reduced_to: 1
  - symbol: Ga # 9
    coordinates: [  0.777777666666668,  0.888888999999999,  0.499470644835146 ]
    mass: 69.723000
    reduced_to: 1
  - symbol: Ga # 10
    coordinates: [  0.111111000000001,  0.222222333333332,  0.999470644835146 ]
    mass: 69.723000
    reduced_to: 1
  - symbol: Ga # 11
    coordinates: [  0.444444333333334,  0.222222333333332,  0.999470644835146 ]
    mass: 69.723000
    reduced_to: 1
  - symbol: Ga # 12
    coordinates: [  0.777777666666668,  0.222222333333332,  0.999470644835146 ]
    mass: 69.723000
    reduced_to: 1
  - symbol: Ga # 13
    coordinates: [  0.111111000000001,  0.555555666666666,  0.999470644835146 ]
    mass: 69.723000
    reduced_to: 1
  - symbol: Ga # 14
    coordinates: [  0.444444333333334,  0.555555666666666,  0.999470644835146 ]
    mass: 69.723000
    reduced_to: 1
  - symbol: Ga # 15
    coordinates: [  0.777777666666668,  0.555555666666666,  0.999470644835146 ]
    mass: 69.723000
    reduced_to: 1
  - symbol: Ga # 16
    coordinates: [  0.111111000000001,  0.888888999999999,  0.999470644835146 ]
    mass: 69.723000
    reduced_to: 1
  - symbol: Ga # 17
    coordinates: [  0.444444333333334,  0.888888999999999,  0.999470644835146 ]
    mass: 69.723000
    reduced_to: 1
  - symbol: Ga # 18
    coordinates: [  0.777777666666668,  0.888888999999999,  0.999470644835146 ]
    mass: 69.723000
    reduced_to: 1
  - symbol: Ga # 19
    coordinates: [  0.222222333333332,  0.111111000000001,  0.249470644835146 ]
    mass: 69.723000
    reduced_to: 19
  - symbol: Ga # 20
    coordinates: [  0.555555666666666,  0.111111000000001,  0.249470644835146 ]
    mass: 69.723000
    reduced_to: 19
  - symbol: Ga # 21
    coordinates: [  0.888888999999999,  0.111111000000001,  0.249470644835146 ]
    mass: 69.723000
    reduced_to: 19
  - symbol: Ga # 22
    coordinates: [  0.222222333333332,  0.444444333333334,  0.249470644835146 ]
    mass: 69.723000
    reduced_to: 19
  - symbol: Ga # 23
    coordinates: [  0.555555666666666,  0.444444333333334,  0.249470644835146 ]
    mass: 69.723000
    reduced_to: 19
  - symbol: Ga # 24
    coordinates: [  0.888888999999999,  0.444444333333334,  0.249470644835146 ]
    mass: 69.723000
    reduced_to: 19
  - symbol: Ga # 25
    coordinates: [  0.222222333333332,  0.777777666666668,  0.249470644835146 ]
    mass: 69.723000
    reduced_to: 19
  - symbol: Ga # 26
    coordinates: [  0.555555666666666,  0.777777666666668,  0.249470644835146 ]
    mass: 69.723000
    reduced_to: 19
  - symbol: Ga # 27
    coordinates: [  0.888888999999999,  0.777777666666668,  0.249470644835146 ]
    mass: 69.723000
    reduced_to: 19
  - symbol: Ga # 28
    coordinates: [  0.222222333333332,  0.111111000000001,  0.749470644835146 ]
    mass: 69.723000
    reduced_to: 19
  - symbol: Ga # 29
    coordinates: [  0.555555666666666,  0.111111000000001,  0.749470644835146 ]
    mass: 69.723000
    reduced_to: 19
  - symbol: Ga # 30
    coordinates: [  0.888888999999999,  0.111111000000001,  0.749470644835146 ]
    mass: 69.723000
    reduced_to: 19
  - symbol: Ga # 31
    coordinates: [  0.222222333333332,  0.444444333333334,  0.749470644835146 ]
    mass: 69.723000
    reduced_to: 19
  - symbol: Ga # 32
    coordinates: [  0.555555666666666,  0.444444333333334,  0.749470644835146 ]
    mass: 69.723000
    reduced_to: 19
  - symbol: Ga # 33
    coordinates: [  0.888888999999999,  0.444444333333334,  0.749470644835146 ]
    mass: 69.723000
    reduced_to: 19
  - symbol: Ga # 34
    coordinates: [  0.222222333333332,  0.777777666666668,  0.749470644835146 ]
    mass: 69.723000
    reduced_to: 19
  - symbol: Ga # 35
    coordinates: [  0.555555666666666,  0.777777666666668,  0.749470644835146 ]
    mass: 69.723000
    reduced_to: 19
  - symbol: Ga # 36
    coordinates: [  0.888888999999999,  0.777777666666668,  0.749470644835146 ]
    mass: 69.723000
    reduced_to: 19
  - symbol: N  # 37
    coordinates: [  0.111111000000001,  0.222222333333332,  0.188029355164854 ]
    mass: 14.006700
    reduced_to: 37
  - symbol: N  # 38
    coordinates: [  0.444444333333334,  0.222222333333332,  0.188029355164854 ]
    mass: 14.006700
    reduced_to: 37
  - symbol: N  # 39
    coordinates: [  0.777777666666668,  0.222222333333332,  0.188029355164854 ]
    mass: 14.006700
    reduced_to: 37
  - symbol: N  # 40
    coordinates: [  0.111111000000001,  0.555555666666666,  0.188029355164854 ]
    mass: 14.006700
    reduced_to: 37
  - symbol: N  # 41
    coordinates: [  0.444444333333334,  0.555555666666666,  0.188029355164854 ]
    mass: 14.006700
    reduced_to: 37
  - symbol: N  # 42
    coordinates: [  0.777777666666668,  0.555555666666666,  0.188029355164854 ]
    mass: 14.006700
    reduced_to: 37
  - symbol: N  # 43
    coordinates: [  0.111111000000001,  0.888888999999999,  0.188029355164854 ]
    mass: 14.006700
    reduced_to: 37
  - symbol: N  # 44
    coordinates: [  0.444444333333334,  0.888888999999999,  0.188029355164854 ]
    mass: 14.006700
    reduced_to: 37
  - symbol: N  # 45
    coordinates: [  0.777777666666668,  0.888888999999999,  0.188029355164854 ]
    mass: 14.006700
    reduced_to: 37
  - symbol: N  # 46
    coordinates: [  0.111111000000001,  0.222222333333332,  0.688029355164854 ]
    mass: 14.006700
    reduced_to: 37
  - symbol: N  # 47
    coordinates: [  0.444444333333334,  0.222222333333332,  0.688029355164854 ]
    mass: 14.006700
    reduced_to: 37
  - symbol: N  # 48
    coordinates: [  0.777777666666668,  0.222222333333332,  0.688029355164854 ]
    mass: 14.006700
    reduced_to: 37
  - symbol: N  # 49
    coordinates: [  0.111111000000001,  0.555555666666666,  0.688029355164854 ]
    mass: 14.006700
    reduced_to: 37
  - symbol: N  # 50
    coordinates: [  0.444444333333334,  0.555555666666666,  0.688029355164854 ]
    mass: 14.006700
    reduced_to: 37
  - symbol: N  # 51
    coordinates: [  0.777777666666668,  0.555555666666666,  0.688029355164854 ]
    mass: 14.006700
    reduced_to: 37
  - symbol: N  # 52
    coordinates: [  0.111111000000001,  0.888888999999999,  0.688029355164854 ]
    mass: 14.006700
    reduced_to: 37
  - symbol: N  # 53
    coordinates: [  0.444444333333334,  0.888888999999999,  0.688029355164854 ]
    mass: 14.006700
    reduced_to: 37
  - symbol: N  # 54
    coordinates: [  0.777777666666668,  0.888888999999999,  0.688029355164854 ]
    mass: 14.006700
    reduced_to: 37
  - symbol: N  # 55
    coordinates: [  0.222222333333332,  0.111111000000001,  0.438029355164854 ]
    mass: 14.006700
    reduced_to: 55
  - symbol: N  # 56
    coordinates: [  0.555555666666666,  0.111111000000001,  0.438029355164854 ]
    mass: 14.006700
    reduced_to: 55
  - symbol: N  # 57
    coordinates: [  0.888888999999999,  0.111111000000001,  0.438029355164854 ]
    mass: 14.006700
    reduced_to: 55
  - symbol: N  # 58
    coordinates: [  0.222222333333332,  0.444444333333334,  0.438029355164854 ]
    mass: 14.006700
    reduced_to: 55
  - symbol: N  # 59
    coordinates: [  0.555555666666666,  0.444444333333334,  0.438029355164854 ]
    mass: 14.006700
    reduced_to: 55
  - symbol: N  # 60
    coordinates: [  0.888888999999999,  0.444444333333334,  0.438029355164854 ]
    mass: 14.006700
    reduced_to: 55
  - symbol: N  # 61
    coordinates: [  0.222222333333332,  0.777777666666668,  0.438029355164854 ]
    mass: 14.006700
    reduced_to: 55
  - symbol: N  # 62
    coordinates: [  0.555555666666666,  0.777777666666668,  0.438029355164854 ]
    mass: 14.006700
    reduced_to: 55
  - symbol: N  # 63
    coordinates: [  0.888888999999999,  0.777777666666668,  0.438029355164854 ]
    mass: 14.006700
    reduced_to: 55
  - symbol: N  # 64
    coordinates: [  0.222222333333332,  0.111111000000001,  0.938029355164854 ]
    mass: 14.006700
    reduced_to: 55
  - symbol: N  # 65
    coordinates: [  0.555555666666666,  0.111111000000001,  0.938029355164854 ]
    mass: 14.006700
    reduced_to: 55
  - symbol: N  # 66
    coordinates: [  0.888888999999999,  0.111111000000001,  0.938029355164854 ]
    mass: 14.006700
    reduced_to: 55
  - symbol: N  # 67
    coordinates: [  0.222222333333332,  0.444444333333334,  0.938029355164854 ]
    mass: 14.006700
    reduced_to: 55
  - symbol: N  # 68
    coordinates: [  0.555555666666666,  0.444444333333334,  0.938029355164854 ]
    mass: 14.006700
    reduced_to: 55
  - symbol: N  # 69
    coordinates: [  0.888888999999999,  0.444444333333334,  0.938029355164854 ]
    mass: 14.006700
    reduced_to: 55
  - symbol: N  # 70
    coordinates: [  0.222222333333332,  0.777777666666668,  0.938029355164854 ]
    mass: 14.006700
    reduced_to: 55
  - symbol: N  # 71
    coordinates: [  0.555555666666666,  0.777777666666668,  0.938029355164854 ]
    mass: 14.006700
    reduced_to: 55
  - symbol: N  # 72
    coordinates: [  0.888888999999999,  0.777777666666668,  0.938029355164854 ]
    mass: 14.006700
    reduced_to: 55
