phonopy:
  version: 2.4.2
  frequency_unit_conversion_factor: 15.633302
  symmetry_tolerance: 1.00000e-05
  nac_unit_conversion_factor: 14.400000
  configuration:
    eigenvectors: ".TRUE."
    dim: "2 2 2"
    primitive_axis: "AUTO"
    nac: ".TRUE."
    qpoints: "0 0 0"

physical_unit:
  atomic_mass: "AMU"
  length: "Angstrom"
  force_constants: "eV/Angstrom^2"

supercell_matrix:
- [   2,   0,   0 ]
- [   0,   2,   0 ]
- [   0,   0,   2 ]

space_group:
  type: "F-43m"
  number: 216
  Hall_symbol: "F -4 2 3"

primitive_matrix:
- [  0.000000000000000,  0.500000000000000,  0.500000000000000 ]
- [  0.500000000000000,  0.500000000000000,  0.000000000000000 ]
- [ -0.500000000000000,  0.000000000000000, -0.500000000000000 ]

primitive_cell:
  lattice:
  - [     0.000000000000000,     2.877755157743131,    -2.877755157743131 ] # a
  - [     2.877755157743131,     2.877755157743131,     0.000000000000000 ] # b
  - [     2.877755157743131,     0.000000000000000,    -2.877755157743131 ] # c
  points:
  - symbol: Ga # 1
    coordinates: [  0.000000000000000,  0.000000000000000,  0.000000000000000 ]
    mass: 69.723000
  - symbol: As # 2
    coordinates: [  0.750000000000000,  0.750000000000000,  0.750000000000000 ]
    mass: 74.921600
  reciprocal_lattice: # without 2pi
  - [    -0.173746539435316,     0.173746539435316,    -0.173746539435316 ] # a*
  - [     0.173746539435316,     0.173746539435316,     0.173746539435316 ] # b*
  - [     0.173746539435316,    -0.173746539435316,    -0.173746539435316 ] # c*

unit_cell:
  lattice:
  - [     5.755510315486262,    -0.000000000000000,     0.000000000000000 ] # a
  - [     0.000000000000000,     5.755510315486262,     0.000000000000000 ] # b
  - [    -0.000000000000000,    -0.000000000000000,     5.755510315486262 ] # c
  points:
  - symbol: Ga # 1
    coordinates: [ -0.000000000000000,  0.000000000000000, -0.000000000000000 ]
    mass: 69.723000
    reduced_to: 1
  - symbol: Ga # 2
    coordinates: [ -0.000000000000000,  0.500000000000000,  0.500000000000000 ]
    mass: 69.723000
    reduced_to: 1
  - symbol: Ga # 3
    coordinates: [  0.500000000000000,  0.000000000000000,  0.500000000000000 ]
    mass: 69.723000
    reduced_to: 1
  - symbol: Ga # 4
    coordinates: [  0.500000000000000,  0.500000000000000, -0.000000000000000 ]
    mass: 69.723000
    reduced_to: 1
  - symbol: As # 5
    coordinates: [  0.250000000000000,  0.250000000000000,  0.250000000000000 ]
    mass: 74.921600
    reduced_to: 5
  - symbol: As # 6
    coordinates: [  0.750000000000000,  0.750000000000000,  0.250000000000000 ]
    mass: 74.921600
    reduced_to: 5
  - symbol: As # 7
    coordinates: [  0.750000000000000,  0.250000000000000,  0.750000000000000 ]
    mass: 74.921600
    reduced_to: 5
  - symbol: As # 8
    coordinates: [  0.250000000000000,  0.750000000000000,  0.750000000000000 ]
    mass: 74.921600
    reduced_to: 5

supercell:
  lattice:
  - [    11.511020630972524,     0.000000000000000,     0.000000000000000 ] # a
  - [     0.000000000000000,    11.511020630972524,     0.000000000000000 ] # b
  - [     0.000000000000000,     0.000000000000000,    11.511020630972524 ] # c
  points:
  - symbol: Ga # 1
    coordinates: [  0.000000000000000,  0.000000000000000,  0.000000000000000 ]
    mass: 69.723000
    reduced_to: 1
  - symbol: Ga # 2
    coordinates: [  0.500000000000000,  0.000000000000000,  0.000000000000000 ]
    mass: 69.723000
    reduced_to: 1
  - symbol: Ga # 3
    coordinates: [  0.000000000000000,  0.500000000000000,  0.000000000000000 ]
    mass: 69.723000
    reduced_to: 1
  - symbol: Ga # 4
    coordinates: [  0.500000000000000,  0.500000000000000,  0.000000000000000 ]
    mass: 69.723000
    reduced_to: 1
  - symbol: Ga # 5
    coordinates: [  0.000000000000000,  0.000000000000000,  0.500000000000000 ]
    mass: 69.723000
    reduced_to: 1
  - symbol: Ga # 6
    coordinates: [  0.500000000000000,  0.000000000000000,  0.500000000000000 ]
    mass: 69.723000
    reduced_to: 1
  - symbol: Ga # 7
    coordinates: [  0.000000000000000,  0.500000000000000,  0.500000000000000 ]
    mass: 69.723000
    reduced_to: 1
  - symbol: Ga # 8
    coordinates: [  0.500000000000000,  0.500000000000000,  0.500000000000000 ]
    mass: 69.723000
    reduced_to: 1
  - symbol: Ga # 9
    coordinates: [  0.000000000000000,  0.250000000000000,  0.250000000000000 ]
    mass: 69.723000
    reduced_to: 1
  - symbol: Ga # 10
    coordinates: [  0.500000000000000,  0.250000000000000,  0.250000000000000 ]
    mass: 69.723000
    reduced_to: 1
  - symbol: Ga # 11
    coordinates: [  0.000000000000000,  0.750000000000000,  0.250000000000000 ]
    mass: 69.723000
    reduced_to: 1
  - symbol: Ga # 12
    coordinates: [  0.500000000000000,  0.750000000000000,  0.250000000000000 ]
    mass: 69.723000
    reduced_to: 1
  - symbol: Ga # 13
    coordinates: [  0.000000000000000,  0.250000000000000,  0.750000000000000 ]
    mass: 69.723000
    reduced_to: 1
  - symbol: Ga # 14
    coordinates: [  0.500000000000000,  0.250000000000000,  0.750000000000000 ]
    mass: 69.723000
    reduced_to: 1
  - symbol: Ga # 15
    coordinates: [  0.000000000000000,  0.750000000000000,  0.750000000000000 ]
    mass: 69.723000
    reduced_to: 1
  - symbol: Ga # 16
    coordinates: [  0.500000000000000,  0.750000000000000,  0.750000000000000 ]
    mass: 69.723000
    reduced_to: 1
  - symbol: Ga # 17
    coordinates: [  0.250000000000000,  0.000000000000000,  0.250000000000000 ]
    mass: 69.723000
    reduced_to: 1
  - symbol: Ga # 18
    coordinates: [  0.750000000000000,  0.000000000000000,  0.250000000000000 ]
    mass: 69.723000
    reduced_to: 1
  - symbol: Ga # 19
    coordinates: [  0.250000000000000,  0.500000000000000,  0.250000000000000 ]
    mass: 69.723000
    reduced_to: 1
  - symbol: Ga # 20
    coordinates: [  0.750000000000000,  0.500000000000000,  0.250000000000000 ]
    mass: 69.723000
    reduced_to: 1
  - symbol: Ga # 21
    coordinates: [  0.250000000000000,  0.000000000000000,  0.750000000000000 ]
    mass: 69.723000
    reduced_to: 1
  - symbol: Ga # 22
    coordinates: [  0.750000000000000,  0.000000000000000,  0.750000000000000 ]
    mass: 69.723000
    reduced_to: 1
  - symbol: Ga # 23
    coordinates: [  0.250000000000000,  0.500000000000000,  0.750000000000000 ]
    mass: 69.723000
    reduced_to: 1
  - symbol: Ga # 24
    coordinates: [  0.750000000000000,  0.500000000000000,  0.750000000000000 ]
    mass: 69.723000
    reduced_to: 1
  - symbol: Ga # 25
    coordinates: [  0.250000000000000,  0.250000000000000,  0.000000000000000 ]
    mass: 69.723000
    reduced_to: 1
  - symbol: Ga # 26
    coordinates: [  0.750000000000000,  0.250000000000000,  0.000000000000000 ]
    mass: 69.723000
    reduced_to: 1
  - symbol: Ga # 27
    coordinates: [  0.250000000000000,  0.750000000000000,  0.000000000000000 ]
    mass: 69.723000
    reduced_to: 1
  - symbol: Ga # 28
    coordinates: [  0.750000000000000,  0.750000000000000,  0.000000000000000 ]
    mass: 69.723000
    reduced_to: 1
  - symbol: Ga # 29
    coordinates: [  0.250000000000000,  0.250000000000000,  0.500000000000000 ]
    mass: 69.723000
    reduced_to: 1
  - symbol: Ga # 30
    coordinates: [  0.750000000000000,  0.250000000000000,  0.500000000000000 ]
    mass: 69.723000
    reduced_to: 1
  - symbol: Ga # 31
    coordinates: [  0.250000000000000,  0.750000000000000,  0.500000000000000 ]
    mass: 69.723000
    reduced_to: 1
  - symbol: Ga # 32
    coordinates: [  0.750000000000000,  0.750000000000000,  0.500000000000000 ]
    mass: 69.723000
    reduced_to: 1
  - symbol: As # 33
    coordinates: [  0.125000000000000,  0.125000000000000,  0.125000000000000 ]
    mass: 74.921600
    reduced_to: 33
  - symbol: As # 34
    coordinates: [  0.625000000000000,  0.125000000000000,  0.125000000000000 ]
    mass: 74.921600
    reduced_to: 33
  - symbol: As # 35
    coordinates: [  0.125000000000000,  0.625000000000000,  0.125000000000000 ]
    mass: 74.921600
    reduced_to: 33
  - symbol: As # 36
    coordinates: [  0.625000000000000,  0.625000000000000,  0.125000000000000 ]
    mass: 74.921600
    reduced_to: 33
  - symbol: As # 37
    coordinates: [  0.125000000000000,  0.125000000000000,  0.625000000000000 ]
    mass: 74.921600
    reduced_to: 33
  - symbol: As # 38
    coordinates: [  0.625000000000000,  0.125000000000000,  0.625000000000000 ]
    mass: 74.921600
    reduced_to: 33
  - symbol: As # 39
    coordinates: [  0.125000000000000,  0.625000000000000,  0.625000000000000 ]
    mass: 74.921600
    reduced_to: 33
  - symbol: As # 40
    coordinates: [  0.625000000000000,  0.625000000000000,  0.625000000000000 ]
    mass: 74.921600
    reduced_to: 33
  - symbol: As # 41
    coordinates: [  0.375000000000000,  0.375000000000000,  0.125000000000000 ]
    mass: 74.921600
    reduced_to: 33
  - symbol: As # 42
    coordinates: [  0.875000000000000,  0.375000000000000,  0.125000000000000 ]
    mass: 74.921600
    reduced_to: 33
  - symbol: As # 43
    coordinates: [  0.375000000000000,  0.875000000000000,  0.125000000000000 ]
    mass: 74.921600
    reduced_to: 33
  - symbol: As # 44
    coordinates: [  0.875000000000000,  0.875000000000000,  0.125000000000000 ]
    mass: 74.921600
    reduced_to: 33
  - symbol: As # 45
    coordinates: [  0.375000000000000,  0.375000000000000,  0.625000000000000 ]
    mass: 74.921600
    reduced_to: 33
  - symbol: As # 46
    coordinates: [  0.875000000000000,  0.375000000000000,  0.625000000000000 ]
    mass: 74.921600
    reduced_to: 33
  - symbol: As # 47
    coordinates: [  0.375000000000000,  0.875000000000000,  0.625000000000000 ]
    mass: 74.921600
    reduced_to: 33
  - symbol: As # 48
    coordinates: [  0.875000000000000,  0.875000000000000,  0.625000000000000 ]
    mass: 74.921600
    reduced_to: 33
  - symbol: As # 49
    coordinates: [  0.375000000000000,  0.125000000000000,  0.375000000000000 ]
    mass: 74.921600
    reduced_to: 33
  - symbol: As # 50
    coordinates: [  0.875000000000000,  0.125000000000000,  0.375000000000000 ]
    mass: 74.921600
    reduced_to: 33
  - symbol: As # 51
    coordinates: [  0.375000000000000,  0.625000000000000,  0.375000000000000 ]
    mass: 74.921600
    reduced_to: 33
  - symbol: As # 52
    coordinates: [  0.875000000000000,  0.625000000000000,  0.375000000000000 ]
    mass: 74.921600
    reduced_to: 33
  - symbol: As # 53
    coordinates: [  0.375000000000000,  0.125000000000000,  0.875000000000000 ]
    mass: 74.921600
    reduced_to: 33
  - symbol: As # 54
    coordinates: [  0.875000000000000,  0.125000000000000,  0.875000000000000 ]
    mass: 74.921600
    reduced_to: 33
  - symbol: As # 55
    coordinates: [  0.375000000000000,  0.625000000000000,  0.875000000000000 ]
    mass: 74.921600
    reduced_to: 33
  - symbol: As # 56
    coordinates: [  0.875000000000000,  0.625000000000000,  0.875000000000000 ]
    mass: 74.921600
    reduced_to: 33
  - symbol: As # 57
    coordinates: [  0.125000000000000,  0.375000000000000,  0.375000000000000 ]
    mass: 74.921600
    reduced_to: 33
  - symbol: As # 58
    coordinates: [  0.625000000000000,  0.375000000000000,  0.375000000000000 ]
    mass: 74.921600
    reduced_to: 33
  - symbol: As # 59
    coordinates: [  0.125000000000000,  0.875000000000000,  0.375000000000000 ]
    mass: 74.921600
    reduced_to: 33
  - symbol: As # 60
    coordinates: [  0.625000000000000,  0.875000000000000,  0.375000000000000 ]
    mass: 74.921600
    reduced_to: 33
  - symbol: As # 61
    coordinates: [  0.125000000000000,  0.375000000000000,  0.875000000000000 ]
    mass: 74.921600
    reduced_to: 33
  - symbol: As # 62
    coordinates: [  0.625000000000000,  0.375000000000000,  0.875000000000000 ]
    mass: 74.921600
    reduced_to: 33
  - symbol: As # 63
    coordinates: [  0.125000000000000,  0.875000000000000,  0.875000000000000 ]
    mass: 74.921600
    reduced_to: 33
  - symbol: As # 64
    coordinates: [  0.625000000000000,  0.875000000000000,  0.875000000000000 ]
    mass: 74.921600
    reduced_to: 33
