nqpoint: 1      
natom:   2      
reciprocal_lattice:
- [  -0.17374654,   0.17374654,  -0.17374654 ] # a*
- [   0.17374654,   0.17374654,   0.17374654 ] # b*
- [   0.17374654,  -0.17374654,  -0.17374654 ] # c*
phonon:
- q-position: [    0.0000000,    0.0000000,    0.0000000 ]
  band:
  - # 1
    frequency:   -0.0037528398
    eigenvector:
    - # atom 1
      - [ -0.19707200545818,  0.00000000000000 ]
      - [  0.36454962486335,  0.00000000000000 ]
      - [ -0.55686671901461,  0.00000000000000 ]
    - # atom 2
      - [ -0.20436681169841,  0.00000000000000 ]
      - [  0.37804377321864,  0.00000000000000 ]
      - [ -0.57747966608135,  0.00000000000000 ]
  - # 2
    frequency:   -0.0037528398
    eigenvector:
    - # atom 1
      - [ -0.65664166639765,  0.00000000000000 ]
      - [ -0.01162989020371,  0.00000000000000 ]
      - [  0.22476835781263,  0.00000000000000 ]
    - # atom 2
      - [ -0.68094787728994,  0.00000000000000 ]
      - [ -0.01206038156362,  0.00000000000000 ]
      - [  0.23308837066969,  0.00000000000000 ]
  - # 3
    frequency:   -0.0037528398
    eigenvector:
    - # atom 1
      - [  0.10871381551868, -0.00000000000000 ]
      - [  0.59059517754148,  0.00000000000000 ]
      - [  0.34815655910744,  0.00000000000000 ]
    - # atom 2
      - [  0.11273795998304,  0.00000000000000 ]
      - [  0.61245661532694,  0.00000000000000 ]
      - [  0.36104390266519,  0.00000000000000 ]
  - # 4
    frequency:    7.6820780765
    eigenvector:
    - # atom 1
      - [  0.71977753059110,  0.00000000000000 ]
      - [  0.00912371619789,  0.00000000000000 ]
      - [ -0.00164838997280,  0.00000000000000 ]
    - # atom 2
      - [ -0.69408530797385,  0.00000000000000 ]
      - [ -0.00879804814396,  0.00000000000000 ]
      - [  0.00158955123397,  0.00000000000000 ]
  - # 5
    frequency:    7.6820780765
    eigenvector:
    - # atom 1
      - [  0.00878026571908,  0.00000000000000 ]
      - [ -0.71188955955466,  0.00000000000000 ]
      - [ -0.10630999417532,  0.00000000000000 ]
    - # atom 2
      - [ -0.00846685701721,  0.00000000000000 ]
      - [  0.68647889547356,  0.00000000000000 ]
      - [  0.10251529383986,  0.00000000000000 ]
  - # 6
    frequency:    7.6820780765
    eigenvector:
    - # atom 1
      - [  0.00297763675832,  0.00000000000000 ]
      - [ -0.10628106948274,  0.00000000000000 ]
      - [  0.71194179599144,  0.00000000000000 ]
    - # atom 2
      - [ -0.00287135099193,  0.00000000000000 ]
      - [  0.10248740160468,  0.00000000000000 ]
      - [ -0.68652926734788,  0.00000000000000 ]

