# epsilon and Z* of atoms 1 5
  14.95837510    0.00000000    0.00000000    0.00000000   14.95837510    0.00000000    0.00000000    0.00000000   14.95837510 
   4.45113111    0.00000000    0.00000000    0.00000000    4.45113111    0.00000000    0.00000000    0.00000000    4.45113111 
  -4.45113111    0.00000000    0.00000000    0.00000000   -4.45113111    0.00000000    0.00000000    0.00000000   -4.45113111 
