14.40
   1.77582000    0.00000000    0.00000000    0.00000000    1.77582000    0.00000000    0.00000000    0.00000000    1.77582000 
   0.98356000    0.00000000    0.00000000    0.00000000    0.98356000    0.00000000    0.00000000    0.00000000    0.98356000 
  -0.98356000    0.00000000    0.00000000    0.00000000   -0.98356000    0.00000000    0.00000000    0.00000000   -0.98356000 
