64   
2    

1    
  0.0100000000000000   0.0000000000000000   0.0000000000000000
  -0.0389225500    0.0000000000    0.0000000000
   0.0041827700    0.0000000000    0.0000000000
  -0.0006271000    0.0000000000    0.0000000000
   0.0005648900    0.0000000000    0.0000000000
  -0.0006271000    0.0000000000    0.0000000000
   0.0005648900    0.0000000000    0.0000000000
  -0.0004172500    0.0000000000    0.0000000000
   0.0003950900    0.0000000000    0.0000000000
  -0.0019327500   -0.0000067800   -0.0000067800
   0.0010591800    0.0000010700    0.0000010700
  -0.0019327500    0.0000067800   -0.0000067800
   0.0010591800   -0.0000010700    0.0000010700
  -0.0019327500   -0.0000067800    0.0000067800
   0.0010591800    0.0000010700   -0.0000010700
  -0.0019327500    0.0000067800    0.0000067800
   0.0010591800   -0.0000010700   -0.0000010700
   0.0020967800    0.0000000000    0.0043050400
   0.0020898400    0.0000000000   -0.0042704900
  -0.0000079300    0.0000000000    0.0000949700
  -0.0000050200    0.0000000000   -0.0000953300
   0.0020967800    0.0000000000   -0.0043050400
   0.0020898400    0.0000000000    0.0042704900
  -0.0000079300    0.0000000000   -0.0000949700
  -0.0000050200    0.0000000000    0.0000953300
   0.0020967800    0.0043050400    0.0000000000
   0.0020898400   -0.0042704900    0.0000000000
   0.0020967800   -0.0043050400    0.0000000000
   0.0020898400    0.0042704900    0.0000000000
  -0.0000079300    0.0000949700    0.0000000000
  -0.0000050200   -0.0000953300    0.0000000000
  -0.0000079300   -0.0000949700    0.0000000000
  -0.0000050200    0.0000953300    0.0000000000
  -0.0003368500   -0.0010428300   -0.0010428300
  -0.0003439300    0.0010384000    0.0010384000
  -0.0003368500    0.0010428300   -0.0010428300
  -0.0003439300   -0.0010384000    0.0010384000
  -0.0003368500   -0.0010428300    0.0010428300
  -0.0003439300    0.0010384000   -0.0010384000
  -0.0003368500    0.0010428300    0.0010428300
  -0.0003439300   -0.0010384000   -0.0010384000
   0.0071594400    0.0000000000    0.0000000000
   0.0063645500    0.0000000000    0.0000000000
  -0.0000099600    0.0000000000    0.0000000000
  -0.0000161800    0.0000000000    0.0000000000
  -0.0000099600    0.0000000000    0.0000000000
  -0.0000161800    0.0000000000    0.0000000000
  -0.0000072600    0.0000000000    0.0000000000
  -0.0000113500    0.0000000000    0.0000000000
   0.0046645100   -0.0000160400    0.0000000000
  -0.0019092600   -0.0000022800    0.0000000000
   0.0046645100    0.0000160400    0.0000000000
  -0.0019092600    0.0000022800    0.0000000000
   0.0005768700    0.0000031600    0.0000000000
  -0.0005931200    0.0000017100    0.0000000000
   0.0005768700   -0.0000031600    0.0000000000
  -0.0005931200   -0.0000017100    0.0000000000
   0.0046645100    0.0000000000   -0.0000160400
  -0.0019092600    0.0000000000   -0.0000022800
   0.0005768700    0.0000000000    0.0000031600
  -0.0005931200    0.0000000000    0.0000017100
   0.0046645100    0.0000000000    0.0000160400
  -0.0019092600    0.0000000000    0.0000022800
   0.0005768700    0.0000000000   -0.0000031600
  -0.0005931200    0.0000000000   -0.0000017100

33   
  0.0100000000000000   0.0000000000000000   0.0000000000000000
  -0.0003351300   -0.0010408100   -0.0010408100
  -0.0003287300    0.0010440800    0.0010440800
  -0.0003351300    0.0010408100   -0.0010408100
  -0.0003287300   -0.0010440800    0.0010440800
  -0.0003351300   -0.0010408100    0.0010408100
  -0.0003287300    0.0010440800   -0.0010440800
  -0.0003351300    0.0010408100    0.0010408100
  -0.0003287300   -0.0010440800   -0.0010440800
   0.0063575200   -0.0000000000   -0.0000000000
   0.0071940300   -0.0000000000   -0.0000000000
  -0.0000057400   -0.0000000000   -0.0000000000
  -0.0000013500   -0.0000000000   -0.0000000000
  -0.0000057400   -0.0000000000   -0.0000000000
  -0.0000013500   -0.0000000000   -0.0000000000
   0.0000037300   -0.0000000000   -0.0000000000
   0.0000065300   -0.0000000000   -0.0000000000
   0.0046752800    0.0000084900   -0.0000000000
  -0.0018967600    0.0000023700   -0.0000000000
   0.0046752800   -0.0000084900   -0.0000000000
  -0.0018967600   -0.0000023700   -0.0000000000
   0.0005869300    0.0000000300   -0.0000000000
  -0.0005830500    0.0000007400   -0.0000000000
   0.0005869300   -0.0000000300   -0.0000000000
  -0.0005830500   -0.0000007400   -0.0000000000
   0.0046752800   -0.0000000000    0.0000084900
  -0.0018967600   -0.0000000000    0.0000023700
   0.0005869300   -0.0000000000    0.0000000300
  -0.0005830500   -0.0000000000    0.0000007400
   0.0046752800   -0.0000000000   -0.0000084900
  -0.0018967600   -0.0000000000   -0.0000023700
   0.0005869300   -0.0000000000   -0.0000000300
  -0.0005830500   -0.0000000000   -0.0000007400
  -0.0407279800   -0.0000000000   -0.0000000000
   0.0030510600   -0.0000000000   -0.0000000000
  -0.0011153700   -0.0000000000   -0.0000000000
   0.0011474500   -0.0000000000   -0.0000000000
  -0.0011153700   -0.0000000000   -0.0000000000
   0.0011474500   -0.0000000000   -0.0000000000
  -0.0003786100   -0.0000000000   -0.0000000000
   0.0003851800   -0.0000000000   -0.0000000000
  -0.0019360500    0.0000074900    0.0000074900
   0.0011301900   -0.0000012000   -0.0000012000
  -0.0019360500   -0.0000074900    0.0000074900
   0.0011301900    0.0000012000   -0.0000012000
  -0.0019360500    0.0000074900   -0.0000074900
   0.0011301900   -0.0000012000    0.0000012000
  -0.0019360500   -0.0000074900   -0.0000074900
   0.0011301900    0.0000012000    0.0000012000
   0.0023532400   -0.0000000000    0.0035788900
   0.0023563700   -0.0000000000   -0.0036050500
  -0.0000015600   -0.0000000000    0.0003642000
  -0.0000060800   -0.0000000000   -0.0003656200
   0.0023532400   -0.0000000000   -0.0035788900
   0.0023563700   -0.0000000000    0.0036050500
  -0.0000015600   -0.0000000000   -0.0003642000
  -0.0000060800   -0.0000000000    0.0003656200
   0.0023532400    0.0035788900   -0.0000000000
   0.0023563700   -0.0036050500   -0.0000000000
   0.0023532400   -0.0035788900   -0.0000000000
   0.0023563700    0.0036050500   -0.0000000000
  -0.0000015600    0.0003642000   -0.0000000000
  -0.0000060800   -0.0003656200   -0.0000000000
  -0.0000015600   -0.0003642000   -0.0000000000
  -0.0000060800    0.0003656200   -0.0000000000
