nqpoint: 204    
npath: 4      
segment_nqpoint:
- 51
- 51
- 51
- 51
reciprocal_lattice:
- [  -0.17573761,   0.17573761,   0.17573761 ] # a*
- [   0.17573761,  -0.17573761,   0.17573761 ] # b*
- [   0.17573761,   0.17573761,  -0.17573761 ] # c*
natom: 2      
lattice:
- [     0.000000000000000,     2.845150738087836,     2.845150738087836 ] # a
- [     2.845150738087836,     0.000000000000000,     2.845150738087836 ] # b
- [     2.845150738087836,     2.845150738087836,     0.000000000000000 ] # c
points:
- symbol: Na # 1
  coordinates: [  0.000000000000000,  0.000000000000000,  0.000000000000000 ]
  mass: 22.989769
- symbol: Cl # 2
  coordinates: [  0.500000000000000,  0.500000000000000,  0.500000000000000 ]
  mass: 35.453000
supercell_matrix:
- [   -4,    4,    4 ]
- [    4,   -4,    4 ]
- [    4,    4,   -4 ]

phonon:
- q-position: [    0.0000000,    0.0000000,    0.0000000 ]
  distance:    0.0000000
  band:
  - # 1
    frequency:   -0.0370089502
  - # 2
    frequency:   -0.0370089502
  - # 3
    frequency:   -0.0370089502
  - # 4
    frequency:    4.6084532143
  - # 5
    frequency:    4.6084532143
  - # 6
    frequency:    4.6084532143

- q-position: [    0.0100000,    0.0000000,    0.0000000 ]
  distance:    0.0030439
  band:
  - # 1
    frequency:    0.0687120147
  - # 2
    frequency:    0.0687120147
  - # 3
    frequency:    0.1300058919
  - # 4
    frequency:    4.6091543361
  - # 5
    frequency:    4.6091543361
  - # 6
    frequency:    4.6124341018

- q-position: [    0.0200000,    0.0000000,    0.0000000 ]
  distance:    0.0060877
  band:
  - # 1
    frequency:    0.1516114483
  - # 2
    frequency:    0.1516114483
  - # 3
    frequency:    0.2677489948
  - # 4
    frequency:    4.6112384126
  - # 5
    frequency:    4.6112384126
  - # 6
    frequency:    4.6243179450

- q-position: [    0.0300000,    0.0000000,    0.0000000 ]
  distance:    0.0091316
  band:
  - # 1
    frequency:    0.2310835003
  - # 2
    frequency:    0.2310835003
  - # 3
    frequency:    0.4036304716
  - # 4
    frequency:    4.6146480273
  - # 5
    frequency:    4.6146480273
  - # 6
    frequency:    4.6439303001

- q-position: [    0.0400000,    0.0000000,    0.0000000 ]
  distance:    0.0121755
  band:
  - # 1
    frequency:    0.3097112580
  - # 2
    frequency:    0.3097112580
  - # 3
    frequency:    0.5389413057
  - # 4
    frequency:    4.6192889720
  - # 5
    frequency:    4.6192889720
  - # 6
    frequency:    4.6709869896

- q-position: [    0.0500000,    0.0000000,    0.0000000 ]
  distance:    0.0152193
  band:
  - # 1
    frequency:    0.3879356094
  - # 2
    frequency:    0.3879356094
  - # 3
    frequency:    0.6738923962
  - # 4
    frequency:    4.6250324160
  - # 5
    frequency:    4.6250324160
  - # 6
    frequency:    4.7051034311

- q-position: [    0.0600000,    0.0000000,    0.0000000 ]
  distance:    0.0182632
  band:
  - # 1
    frequency:    0.4658834223
  - # 2
    frequency:    0.4658834223
  - # 3
    frequency:    0.8085213601
  - # 4
    frequency:    4.6317178317
  - # 5
    frequency:    4.6317178317
  - # 6
    frequency:    4.7458067412

- q-position: [    0.0700000,    0.0000000,    0.0000000 ]
  distance:    0.0213071
  band:
  - # 1
    frequency:    0.5435955076
  - # 2
    frequency:    0.5435955076
  - # 3
    frequency:    0.9428164756
  - # 4
    frequency:    4.6391565710
  - # 5
    frequency:    4.6391565710
  - # 6
    frequency:    4.7925498110

- q-position: [    0.0800000,    0.0000000,    0.0000000 ]
  distance:    0.0243509
  band:
  - # 1
    frequency:    0.6210815532
  - # 2
    frequency:    0.6210815532
  - # 3
    frequency:    1.0767470869
  - # 4
    frequency:    4.6471359701
  - # 5
    frequency:    4.6471359701
  - # 6
    frequency:    4.8447265013

- q-position: [    0.0900000,    0.0000000,    0.0000000 ]
  distance:    0.0273948
  band:
  - # 1
    frequency:    0.6983380885
  - # 2
    frequency:    0.6983380885
  - # 3
    frequency:    1.2102734527
  - # 4
    frequency:    4.6554238499
  - # 5
    frequency:    4.6554238499
  - # 6
    frequency:    4.9016871458

- q-position: [    0.1000000,    0.0000000,    0.0000000 ]
  distance:    0.0304386
  band:
  - # 1
    frequency:    0.7753555185
  - # 2
    frequency:    0.7753555185
  - # 3
    frequency:    1.3433504339
  - # 4
    frequency:    4.6637732736
  - # 5
    frequency:    4.6637732736
  - # 6
    frequency:    4.9627536544

- q-position: [    0.1100000,    0.0000000,    0.0000000 ]
  distance:    0.0334825
  band:
  - # 1
    frequency:    0.8521211878
  - # 2
    frequency:    0.8521211878
  - # 3
    frequency:    1.4759289274
  - # 4
    frequency:    4.6719274241
  - # 5
    frequency:    4.6719274241
  - # 6
    frequency:    5.0272336575

- q-position: [    0.1200000,    0.0000000,    0.0000000 ]
  distance:    0.0365264
  band:
  - # 1
    frequency:    0.9286207763
  - # 2
    frequency:    0.9286207763
  - # 3
    frequency:    1.6079563540
  - # 4
    frequency:    4.6796244749
  - # 5
    frequency:    4.6796244749
  - # 6
    frequency:    5.0944332937

- q-position: [    0.1300000,    0.0000000,    0.0000000 ]
  distance:    0.0395702
  band:
  - # 1
    frequency:    1.0048389106
  - # 2
    frequency:    1.0048389106
  - # 3
    frequency:    1.7393767115
  - # 4
    frequency:    4.6866023369
  - # 5
    frequency:    4.6866023369
  - # 6
    frequency:    5.1636684002

- q-position: [    0.1400000,    0.0000000,    0.0000000 ]
  distance:    0.0426141
  band:
  - # 1
    frequency:    1.0807593807
  - # 2
    frequency:    1.0807593807
  - # 3
    frequency:    1.8701304170
  - # 4
    frequency:    4.6926031801
  - # 5
    frequency:    4.6926031801
  - # 6
    frequency:    5.2342740032

- q-position: [    0.1500000,    0.0000000,    0.0000000 ]
  distance:    0.0456580
  band:
  - # 1
    frequency:    1.1563651478
  - # 2
    frequency:    1.1563651478
  - # 3
    frequency:    2.0001540498
  - # 4
    frequency:    4.6973776461
  - # 5
    frequency:    4.6973776461
  - # 6
    frequency:    5.3056121130

- q-position: [    0.1600000,    0.0000000,    0.0000000 ]
  distance:    0.0487018
  band:
  - # 1
    frequency:    1.2316382457
  - # 2
    frequency:    1.2316382457
  - # 3
    frequency:    2.1293800541
  - # 4
    frequency:    4.7006886847
  - # 5
    frequency:    4.7006886847
  - # 6
    frequency:    5.3770779110

- q-position: [    0.1700000,    0.0000000,    0.0000000 ]
  distance:    0.0517457
  band:
  - # 1
    frequency:    1.3065596355
  - # 2
    frequency:    1.3065596355
  - # 3
    frequency:    2.2577364342
  - # 4
    frequency:    4.7023149644
  - # 5
    frequency:    4.7023149644
  - # 6
    frequency:    5.4481044622

- q-position: [    0.1800000,    0.0000000,    0.0000000 ]
  distance:    0.0547896
  band:
  - # 1
    frequency:    1.3811090520
  - # 2
    frequency:    1.3811090520
  - # 3
    frequency:    2.3851464628
  - # 4
    frequency:    4.7020538239
  - # 5
    frequency:    4.7020538239
  - # 6
    frequency:    5.5181661200

- q-position: [    0.1900000,    0.0000000,    0.0000000 ]
  distance:    0.0578334
  band:
  - # 1
    frequency:    1.4552648675
  - # 2
    frequency:    1.4552648675
  - # 3
    frequency:    2.5115284132
  - # 4
    frequency:    4.6997237443
  - # 5
    frequency:    4.6997237443
  - # 6
    frequency:    5.5867807966

- q-position: [    0.2000000,    0.0000000,    0.0000000 ]
  distance:    0.0608773
  band:
  - # 1
    frequency:    1.5290039904
  - # 2
    frequency:    1.5290039904
  - # 3
    frequency:    2.6367953214
  - # 4
    frequency:    4.6951663367
  - # 5
    frequency:    4.6951663367
  - # 6
    frequency:    5.6535112731

- q-position: [    0.2100000,    0.0000000,    0.0000000 ]
  distance:    0.0639212
  band:
  - # 1
    frequency:    1.6023018110
  - # 2
    frequency:    1.6023018110
  - # 3
    frequency:    2.7608547791
  - # 4
    frequency:    4.6882478479
  - # 5
    frequency:    4.6882478479
  - # 6
    frequency:    5.7179657094

- q-position: [    0.2200000,    0.0000000,    0.0000000 ]
  distance:    0.0669650
  band:
  - # 1
    frequency:    1.6751322009
  - # 2
    frequency:    1.6751322009
  - # 3
    frequency:    2.8836087573
  - # 4
    frequency:    4.6788601993
  - # 5
    frequency:    4.6788601993
  - # 6
    frequency:    5.7797975045

- q-position: [    0.2300000,    0.0000000,    0.0000000 ]
  distance:    0.0700089
  band:
  - # 1
    frequency:    1.7474675673
  - # 2
    frequency:    1.7474675673
  - # 3
    frequency:    3.0049534530
  - # 4
    frequency:    4.6669215780
  - # 5
    frequency:    4.6669215780
  - # 6
    frequency:    5.8387046374

- q-position: [    0.2400000,    0.0000000,    0.0000000 ]
  distance:    0.0730528
  band:
  - # 1
    frequency:    1.8192789609
  - # 2
    frequency:    1.8192789609
  - # 3
    frequency:    3.1247791518
  - # 4
    frequency:    4.6523766087
  - # 5
    frequency:    4.6523766087
  - # 6
    frequency:    5.8944286073

- q-position: [    0.2500000,    0.0000000,    0.0000000 ]
  distance:    0.0760966
  band:
  - # 1
    frequency:    1.8905362309
  - # 2
    frequency:    1.8905362309
  - # 3
    frequency:    3.2429700936
  - # 4
    frequency:    4.6351961377
  - # 5
    frequency:    4.6351961377
  - # 6
    frequency:    5.9467530741

- q-position: [    0.2600000,    0.0000000,    0.0000000 ]
  distance:    0.0791405
  band:
  - # 1
    frequency:    1.9612082138
  - # 2
    frequency:    1.9612082138
  - # 3
    frequency:    3.3594043245
  - # 4
    frequency:    4.6153766668
  - # 5
    frequency:    4.6153766668
  - # 6
    frequency:    5.9955022937

- q-position: [    0.2700000,    0.0000000,    0.0000000 ]
  distance:    0.0821843
  band:
  - # 1
    frequency:    2.0312629417
  - # 2
    frequency:    2.0312629417
  - # 3
    frequency:    3.4739535143
  - # 4
    frequency:    4.5929394777
  - # 5
    frequency:    4.5929394777
  - # 6
    frequency:    6.0405394292

- q-position: [    0.2800000,    0.0000000,    0.0000000 ]
  distance:    0.0852282
  band:
  - # 1
    frequency:    2.1006678457
  - # 2
    frequency:    2.1006678457
  - # 3
    frequency:    3.5864827123
  - # 4
    frequency:    4.5679294954
  - # 5
    frequency:    4.5679294954
  - # 6
    frequency:    6.0817648157

- q-position: [    0.2900000,    0.0000000,    0.0000000 ]
  distance:    0.0882721
  band:
  - # 1
    frequency:    2.1693899269
  - # 2
    frequency:    2.1693899269
  - # 3
    frequency:    3.6968500096
  - # 4
    frequency:    4.5404139399
  - # 5
    frequency:    4.5404139399
  - # 6
    frequency:    6.1191142530

- q-position: [    0.3000000,    0.0000000,    0.0000000 ]
  distance:    0.0913159
  band:
  - # 1
    frequency:    2.2373958574
  - # 2
    frequency:    2.2373958574
  - # 3
    frequency:    3.8049060686
  - # 4
    frequency:    4.5104808282
  - # 5
    frequency:    4.5104808282
  - # 6
    frequency:    6.1525573978

- q-position: [    0.3100000,    0.0000000,    0.0000000 ]
  distance:    0.0943598
  band:
  - # 1
    frequency:    2.3046519635
  - # 2
    frequency:    2.3046519635
  - # 3
    frequency:    3.9104934714
  - # 4
    frequency:    4.4782373930
  - # 5
    frequency:    4.4782373930
  - # 6
    frequency:    6.1820963310

- q-position: [    0.3200000,    0.0000000,    0.0000000 ]
  distance:    0.0974037
  band:
  - # 1
    frequency:    2.3711240309
  - # 2
    frequency:    2.3711240309
  - # 3
    frequency:    4.0134458351
  - # 4
    frequency:    4.4438084994
  - # 5
    frequency:    4.4438084994
  - # 6
    frequency:    6.2077643757

- q-position: [    0.3300000,    0.0000000,    0.0000000 ]
  distance:    0.1004475
  band:
  - # 1
    frequency:    2.4367768538
  - # 2
    frequency:    2.4367768538
  - # 3
    frequency:    4.1135866271
  - # 4
    frequency:    4.4073351618
  - # 5
    frequency:    4.4073351618
  - # 6
    frequency:    6.2296252493

- q-position: [    0.3400000,    0.0000000,    0.0000000 ]
  distance:    0.1034914
  band:
  - # 1
    frequency:    2.5015734196
  - # 2
    frequency:    2.5015734196
  - # 3
    frequency:    4.2107276122
  - # 4
    frequency:    4.3689732827
  - # 5
    frequency:    4.3689732827
  - # 6
    frequency:    6.2477726341

- q-position: [    0.3500000,    0.0000000,    0.0000000 ]
  distance:    0.1065353
  band:
  - # 1
    frequency:    2.5654735879
  - # 2
    frequency:    2.5654735879
  - # 3
    frequency:    4.3046668544
  - # 4
    frequency:    4.3288927837
  - # 5
    frequency:    4.3288927837
  - # 6
    frequency:    6.2623302558

- q-position: [    0.3600000,    0.0000000,    0.0000000 ]
  distance:    0.1095791
  band:
  - # 1
    frequency:    2.6284320572
  - # 2
    frequency:    2.6284320572
  - # 3
    frequency:    4.2872773501
  - # 4
    frequency:    4.2872773501
  - # 5
    frequency:    4.3951861979
  - # 6
    frequency:    6.2734525567

- q-position: [    0.3700000,    0.0000000,    0.0000000 ]
  distance:    0.1126230
  band:
  - # 1
    frequency:    2.6903953269
  - # 2
    frequency:    2.6903953269
  - # 3
    frequency:    4.2443251106
  - # 4
    frequency:    4.2443251106
  - # 5
    frequency:    4.4820481624
  - # 6
    frequency:    6.2813260349

- q-position: [    0.3800000,    0.0000000,    0.0000000 ]
  distance:    0.1156669
  band:
  - # 1
    frequency:    2.7512972142
  - # 2
    frequency:    2.7512972142
  - # 3
    frequency:    4.2002507133
  - # 4
    frequency:    4.2002507133
  - # 5
    frequency:    4.5649922225
  - # 6
    frequency:    6.2861712910

- q-position: [    0.3900000,    0.0000000,    0.0000000 ]
  distance:    0.1187107
  band:
  - # 1
    frequency:    2.8110522555
  - # 2
    frequency:    2.8110522555
  - # 3
    frequency:    4.1552894953
  - # 4
    frequency:    4.1552894953
  - # 5
    frequency:    4.6437305048
  - # 6
    frequency:    6.2882457516

- q-position: [    0.4000000,    0.0000000,    0.0000000 ]
  distance:    0.1217546
  band:
  - # 1
    frequency:    2.8695459463
  - # 2
    frequency:    2.8695459463
  - # 3
    frequency:    4.1097048209
  - # 4
    frequency:    4.1097048209
  - # 5
    frequency:    4.7179430629
  - # 6
    frequency:    6.2878469166

- q-position: [    0.4100000,    0.0000000,    0.0000000 ]
  distance:    0.1247985
  band:
  - # 1
    frequency:    2.9266201590
  - # 2
    frequency:    2.9266201590
  - # 3
    frequency:    4.0638002765
  - # 4
    frequency:    4.0638002765
  - # 5
    frequency:    4.7872731019
  - # 6
    frequency:    6.2853157634

- q-position: [    0.4200000,    0.0000000,    0.0000000 ]
  distance:    0.1278423
  band:
  - # 1
    frequency:    2.9820510823
  - # 2
    frequency:    2.9820510823
  - # 3
    frequency:    4.0179394100
  - # 4
    frequency:    4.0179394100
  - # 5
    frequency:    4.8513228546
  - # 6
    frequency:    6.2810396088

- q-position: [    0.4300000,    0.0000000,    0.0000000 ]
  distance:    0.1308862
  band:
  - # 1
    frequency:    3.0355154545
  - # 2
    frequency:    3.0355154545
  - # 3
    frequency:    3.9725772720
  - # 4
    frequency:    3.9725772720
  - # 5
    frequency:    4.9096512876
  - # 6
    frequency:    6.2754532533

- q-position: [    0.4400000,    0.0000000,    0.0000000 ]
  distance:    0.1339300
  band:
  - # 1
    frequency:    3.0865386116
  - # 2
    frequency:    3.0865386116
  - # 3
    frequency:    3.9283102708
  - # 4
    frequency:    3.9283102708
  - # 5
    frequency:    4.9617754171
  - # 6
    frequency:    6.2690366333

- q-position: [    0.4500000,    0.0000000,    0.0000000 ]
  distance:    0.1369739
  band:
  - # 1
    frequency:    3.1344154701
  - # 2
    frequency:    3.1344154701
  - # 3
    frequency:    3.8859532507
  - # 4
    frequency:    3.8859532507
  - # 5
    frequency:    5.0071776043
  - # 6
    frequency:    6.2623066089

- q-position: [    0.4600000,    0.0000000,    0.0000000 ]
  distance:    0.1400178
  band:
  - # 1
    frequency:    3.1780962688
  - # 2
    frequency:    3.1780962688
  - # 3
    frequency:    3.8466519998
  - # 4
    frequency:    3.8466519998
  - # 5
    frequency:    5.0453214896
  - # 6
    frequency:    6.2558002340

- q-position: [    0.4700000,    0.0000000,    0.0000000 ]
  distance:    0.1430616
  band:
  - # 1
    frequency:    3.2160444471
  - # 2
    frequency:    3.2160444471
  - # 3
    frequency:    3.8120238372
  - # 4
    frequency:    3.8120238372
  - # 5
    frequency:    5.0756786648
  - # 6
    frequency:    6.2500474090

- q-position: [    0.4800000,    0.0000000,    0.0000000 ]
  distance:    0.1461055
  band:
  - # 1
    frequency:    3.2461341328
  - # 2
    frequency:    3.2461341328
  - # 3
    frequency:    3.7842588328
  - # 4
    frequency:    3.7842588328
  - # 5
    frequency:    5.0977661928
  - # 6
    frequency:    6.2455328068

- q-position: [    0.4900000,    0.0000000,    0.0000000 ]
  distance:    0.1491494
  band:
  - # 1
    frequency:    3.2657905124
  - # 2
    frequency:    3.2657905124
  - # 3
    frequency:    3.7659784069
  - # 4
    frequency:    3.7659784069
  - # 5
    frequency:    5.1111914725
  - # 6
    frequency:    6.2426505767

- q-position: [    0.5000000,    0.0000000,    0.0000000 ]
  distance:    0.1521932
  band:
  - # 1
    frequency:    3.2726711098
  - # 2
    frequency:    3.2726711098
  - # 3
    frequency:    3.7595533030
  - # 4
    frequency:    3.7595533030
  - # 5
    frequency:    5.1156965934
  - # 6
    frequency:    6.2416596819

- q-position: [    0.5000000,    0.0000000,    0.0000000 ]
  distance:    0.1521932
  band:
  - # 1
    frequency:    3.2726711098
  - # 2
    frequency:    3.2726711098
  - # 3
    frequency:    3.7595533030
  - # 4
    frequency:    3.7595533030
  - # 5
    frequency:    5.1156965934
  - # 6
    frequency:    6.2416596819

- q-position: [    0.5000000,    0.0100000,    0.0000000 ]
  distance:    0.1552371
  band:
  - # 1
    frequency:    3.2677390886
  - # 2
    frequency:    3.2742651630
  - # 3
    frequency:    3.7605188087
  - # 4
    frequency:    3.7638339829
  - # 5
    frequency:    5.1148462841
  - # 6
    frequency:    6.2401168125

- q-position: [    0.5000000,    0.0200000,    0.0000000 ]
  distance:    0.1582810
  band:
  - # 1
    frequency:    3.2534606980
  - # 2
    frequency:    3.2790341216
  - # 3
    frequency:    3.7633986999
  - # 4
    frequency:    3.7761728640
  - # 5
    frequency:    5.1122984920
  - # 6
    frequency:    6.2354979210

- q-position: [    0.5000000,    0.0300000,    0.0000000 ]
  distance:    0.1613248
  band:
  - # 1
    frequency:    3.2311528358
  - # 2
    frequency:    3.2869385056
  - # 3
    frequency:    3.7681429985
  - # 4
    frequency:    3.7952963558
  - # 5
    frequency:    5.1080630287
  - # 6
    frequency:    6.2278319880

- q-position: [    0.5000000,    0.0400000,    0.0000000 ]
  distance:    0.1643687
  band:
  - # 1
    frequency:    3.2024408576
  - # 2
    frequency:    3.2979129144
  - # 3
    frequency:    3.7746680629
  - # 4
    frequency:    3.8196504907
  - # 5
    frequency:    5.1021576029
  - # 6
    frequency:    6.2171667508

- q-position: [    0.5000000,    0.0500000,    0.0000000 ]
  distance:    0.1674126
  band:
  - # 1
    frequency:    3.1688663222
  - # 2
    frequency:    3.3118666012
  - # 3
    frequency:    3.7828560300
  - # 4
    frequency:    3.8477920008
  - # 5
    frequency:    5.0946099018
  - # 6
    frequency:    6.2035678578

- q-position: [    0.5000000,    0.0600000,    0.0000000 ]
  distance:    0.1704564
  band:
  - # 1
    frequency:    3.1317173871
  - # 2
    frequency:    3.3286842207
  - # 3
    frequency:    3.7925539636
  - # 4
    frequency:    3.8785562873
  - # 5
    frequency:    5.0854605893
  - # 6
    frequency:    6.1871176841

- q-position: [    0.5000000,    0.0700000,    0.0000000 ]
  distance:    0.1735003
  band:
  - # 1
    frequency:    3.0920142037
  - # 2
    frequency:    3.3482266848
  - # 3
    frequency:    3.8035726599
  - # 4
    frequency:    3.9110699452
  - # 5
    frequency:    5.0747672937
  - # 6
    frequency:    6.1679138147

- q-position: [    0.5000000,    0.0800000,    0.0000000 ]
  distance:    0.1765442
  band:
  - # 1
    frequency:    3.0505565137
  - # 2
    frequency:    3.3703320307
  - # 3
    frequency:    3.8156850871
  - # 4
    frequency:    3.9447006631
  - # 5
    frequency:    5.0626096489
  - # 6
    frequency:    6.1460672060

- q-position: [    0.5000000,    0.0900000,    0.0000000 ]
  distance:    0.1795880
  band:
  - # 1
    frequency:    3.0079808196
  - # 2
    frequency:    3.3948161500
  - # 3
    frequency:    3.8286245040
  - # 4
    frequency:    3.9789971456
  - # 5
    frequency:    5.0490954223
  - # 6
    frequency:    6.1217000511

- q-position: [    0.5000000,    0.1000000,    0.0000000 ]
  distance:    0.1826319
  band:
  - # 1
    frequency:    2.9648080102
  - # 2
    frequency:    3.4214731553
  - # 3
    frequency:    3.8420824424
  - # 4
    frequency:    4.0136382055
  - # 5
    frequency:    5.0343676816
  - # 6
    frequency:    6.0949433898

- q-position: [    0.5000000,    0.1100000,    0.0000000 ]
  distance:    0.1856757
  band:
  - # 1
    frequency:    2.9214780671
  - # 2
    frequency:    3.4500750243
  - # 3
    frequency:    3.8557070005
  - # 4
    frequency:    4.0483944369
  - # 5
    frequency:    5.0186128019
  - # 6
    frequency:    6.0659345247

- q-position: [    0.5000000,    0.1200000,    0.0000000 ]
  distance:    0.1887196
  band:
  - # 1
    frequency:    2.8783736969
  - # 2
    frequency:    3.4803699329
  - # 3
    frequency:    3.8691023612
  - # 4
    frequency:    4.0831006606
  - # 5
    frequency:    5.0020688616
  - # 6
    frequency:    6.0348143333

- q-position: [    0.5000000,    0.1300000,    0.0000000 ]
  distance:    0.1917635
  band:
  - # 1
    frequency:    2.8358356769
  - # 2
    frequency:    3.5120782619
  - # 3
    frequency:    3.8818312522
  - # 4
    frequency:    4.1176364093
  - # 5
    frequency:    4.9850335730
  - # 6
    frequency:    6.0017245904

- q-position: [    0.5000000,    0.1400000,    0.0000000 ]
  distance:    0.1948073
  band:
  - # 1
    frequency:    2.7941723165
  - # 2
    frequency:    3.5448844309
  - # 3
    frequency:    3.8934234433
  - # 4
    frequency:    4.1519121069
  - # 5
    frequency:    4.9678703271
  - # 6
    frequency:    5.9668054420

- q-position: [    0.5000000,    0.1500000,    0.0000000 ]
  distance:    0.1978512
  band:
  - # 1
    frequency:    2.7536648278
  - # 2
    frequency:    3.5784210431
  - # 3
    frequency:    3.9033957414
  - # 4
    frequency:    4.1858592229
  - # 5
    frequency:    4.9510102286
  - # 6
    frequency:    5.9301931935

- q-position: [    0.5000000,    0.1600000,    0.0000000 ]
  distance:    0.2008951
  band:
  - # 1
    frequency:    2.7145698830
  - # 2
    frequency:    3.6122383095
  - # 3
    frequency:    3.9112931382
  - # 4
    frequency:    4.2194232076
  - # 5
    frequency:    4.9349473040
  - # 6
    frequency:    5.8920185845

- q-position: [    0.5000000,    0.1700000,    0.0000000 ]
  distance:    0.2039389
  band:
  - # 1
    frequency:    2.6771202652
  - # 2
    frequency:    3.6457441925
  - # 3
    frequency:    3.9167686167
  - # 4
    frequency:    4.2525584028
  - # 5
    frequency:    4.9202237619
  - # 6
    frequency:    5.8524057214

- q-position: [    0.5000000,    0.1800000,    0.0000000 ]
  distance:    0.2069828
  band:
  - # 1
    frequency:    2.6415242682
  - # 2
    frequency:    3.6780848954
  - # 3
    frequency:    3.9197342714
  - # 4
    frequency:    4.2852243809
  - # 5
    frequency:    4.9074028575
  - # 6
    frequency:    5.8114718212

- q-position: [    0.5000000,    0.1900000,    0.0000000 ]
  distance:    0.2100267
  band:
  - # 1
    frequency:    2.6079643408
  - # 2
    frequency:    3.7079076140
  - # 3
    frequency:    3.9206418633
  - # 4
    frequency:    4.3173833433
  - # 5
    frequency:    4.8970292061
  - # 6
    frequency:    5.7693278870

- q-position: [    0.5000000,    0.2000000,    0.0000000 ]
  distance:    0.2130705
  band:
  - # 1
    frequency:    2.5765953611
  - # 2
    frequency:    3.7329396064
  - # 3
    frequency:    3.9209548135
  - # 4
    frequency:    4.3489983184
  - # 5
    frequency:    4.8895804017
  - # 6
    frequency:    5.7260803921

- q-position: [    0.5000000,    0.2100000,    0.0000000 ]
  distance:    0.2161144
  band:
  - # 1
    frequency:    2.5475428539
  - # 2
    frequency:    3.7495683195
  - # 3
    frequency:    3.9236184109
  - # 4
    frequency:    4.3800319782
  - # 5
    frequency:    4.8854183980
  - # 6
    frequency:    5.6818339954

- q-position: [    0.5000000,    0.2200000,    0.0000000 ]
  distance:    0.2191583
  band:
  - # 1
    frequency:    2.5209014093
  - # 2
    frequency:    3.7535846727
  - # 3
    frequency:    3.9323549584
  - # 4
    frequency:    4.4104459357
  - # 5
    frequency:    4.8847518452
  - # 6
    frequency:    5.6366952634

- q-position: [    0.5000000,    0.2300000,    0.0000000 ]
  distance:    0.2222021
  band:
  - # 1
    frequency:    2.4967335105
  - # 2
    frequency:    3.7430114420
  - # 3
    frequency:    3.9488523209
  - # 4
    frequency:    4.4402004221
  - # 5
    frequency:    4.8876190357
  - # 6
    frequency:    5.5907773264

- q-position: [    0.5000000,    0.2400000,    0.0000000 ]
  distance:    0.2252460
  band:
  - # 1
    frequency:    2.4750689327
  - # 2
    frequency:    3.7193665209
  - # 3
    frequency:    3.9714925272
  - # 4
    frequency:    4.4692542592
  - # 5
    frequency:    4.8938951110
  - # 6
    frequency:    5.5442053621

- q-position: [    0.5000000,    0.2500000,    0.0000000 ]
  distance:    0.2282899
  band:
  - # 1
    frequency:    2.4559048252
  - # 2
    frequency:    3.6854070311
  - # 3
    frequency:    3.9975784742
  - # 4
    frequency:    4.4975650602
  - # 5
    frequency:    4.9033196121
  - # 6
    frequency:    5.4971227839

- q-position: [    0.5000000,    0.2600000,    0.0000000 ]
  distance:    0.2313337
  band:
  - # 1
    frequency:    2.4392065374
  - # 2
    frequency:    3.6433973083
  - # 3
    frequency:    4.0250249345
  - # 4
    frequency:    4.5250895992
  - # 5
    frequency:    4.9155352336
  - # 6
    frequency:    5.4496980037

- q-position: [    0.5000000,    0.2700000,    0.0000000 ]
  distance:    0.2343776
  band:
  - # 1
    frequency:    2.4249091963
  - # 2
    frequency:    3.5949386830
  - # 3
    frequency:    4.0524860095
  - # 4
    frequency:    4.5517843005
  - # 5
    frequency:    4.9301277797
  - # 6
    frequency:    5.4021316654

- q-position: [    0.5000000,    0.2800000,    0.0000000 ]
  distance:    0.2374215
  band:
  - # 1
    frequency:    2.4129199952
  - # 2
    frequency:    3.5412089452
  - # 3
    frequency:    4.0790785651
  - # 4
    frequency:    4.5776058007
  - # 5
    frequency:    4.9466598529
  - # 6
    frequency:    5.3546643346

- q-position: [    0.5000000,    0.2900000,    0.0000000 ]
  distance:    0.2404653
  band:
  - # 1
    frequency:    2.4031211068
  - # 2
    frequency:    3.4831468878
  - # 3
    frequency:    4.1041699500
  - # 4
    frequency:    4.6025115458
  - # 5
    frequency:    4.9646942093
  - # 6
    frequency:    5.3075849430

- q-position: [    0.5000000,    0.3000000,    0.0000000 ]
  distance:    0.2435092
  band:
  - # 1
    frequency:    2.3953730991
  - # 2
    frequency:    3.4215534785
  - # 3
    frequency:    4.1272592423
  - # 4
    frequency:    4.6264603889
  - # 5
    frequency:    4.9838044546
  - # 6
    frequency:    5.2612414318

- q-position: [    0.5000000,    0.3100000,    0.0000000 ]
  distance:    0.2465530
  band:
  - # 1
    frequency:    2.3895187114
  - # 2
    frequency:    3.3571454801
  - # 3
    frequency:    4.1479156297
  - # 4
    frequency:    4.6494131570
  - # 5
    frequency:    5.0035675221
  - # 6
    frequency:    5.2160596254

- q-position: [    0.5000000,    0.3200000,    0.0000000 ]
  distance:    0.2495969
  band:
  - # 1
    frequency:    2.3853868319
  - # 2
    frequency:    3.2905858972
  - # 3
    frequency:    4.1657489195
  - # 4
    frequency:    4.6713331647
  - # 5
    frequency:    5.0235103255
  - # 6
    frequency:    5.1725984414

- q-position: [    0.5000000,    0.3300000,    0.0000000 ]
  distance:    0.2526408
  band:
  - # 1
    frequency:    2.3827965237
  - # 2
    frequency:    3.2225032444
  - # 3
    frequency:    4.1804002357
  - # 4
    frequency:    4.6921866516
  - # 5
    frequency:    5.0428325060
  - # 6