# epsilon and Z* of atoms 1 5
  3.273061    0.00000000    0.00000000    0.00000000   3.273061    0.00000000    0.00000000    0.00000000   3.273061 
   1.20041    0.00000000    0.00000000    0.00000000    1.20041    0.00000000    0.00000000    0.00000000    1.20041 
  -1.20041    0.00000000    0.00000000    0.00000000   -1.20041    0.00000000    0.00000000    0.00000000   -1.20041
 
