64   
2    

1    
  0.0100000000000000   0.0000000000000000   0.0000000000000000
  -0.0103988500   -0.0000000000    0.0000000000
   0.0022303400   -0.0000000000    0.0000000000
   0.0001003300   -0.0000000000    0.0000000000
  -0.0000230700   -0.0000000000    0.0000000000
   0.0001003300   -0.0000000000    0.0000000000
  -0.0000230700   -0.0000000000    0.0000000000
  -0.0000814900   -0.0000000000    0.0000000000
   0.0000809900   -0.0000000000    0.0000000000
   0.0001231700    0.0011143000    0.0000000000
   0.0001242400   -0.0011073300    0.0000000000
   0.0001231700   -0.0011143000    0.0000000000
   0.0001242400    0.0011073300    0.0000000000
  -0.0000026700   -0.0000475400    0.0000000000
  -0.0000019600    0.0000472500    0.0000000000
  -0.0000026700    0.0000475400    0.0000000000
  -0.0000019600   -0.0000472500    0.0000000000
   0.0001231700   -0.0000000000    0.0011143000
   0.0001242400   -0.0000000000   -0.0011073300
  -0.0000026700   -0.0000000000   -0.0000475400
  -0.0000019600   -0.0000000000    0.0000472500
   0.0001231700   -0.0000000000   -0.0011143000
   0.0001242400   -0.0000000000    0.0011073300
  -0.0000026700   -0.0000000000    0.0000475400
  -0.0000019600   -0.0000000000   -0.0000472500
  -0.0002174400   -0.0000009300   -0.0000009300
   0.0001795300    0.0000003300    0.0000003300
  -0.0002174400    0.0000009300   -0.0000009300
   0.0001795300   -0.0000003300    0.0000003300
  -0.0002174400   -0.0000009300    0.0000009300
   0.0001795300    0.0000003300   -0.0000003300
  -0.0002174400    0.0000009300    0.0000009300
   0.0001795300   -0.0000003300   -0.0000003300
   0.0007844000   -0.0000000000   -0.0000063700
  -0.0005820300   -0.0000000000   -0.0000011200
   0.0000979500   -0.0000000000    0.0000007100
  -0.0001077500   -0.0000000000   -0.0000001400
   0.0007844000   -0.0000000000    0.0000063700
  -0.0005820300   -0.0000000000    0.0000011200
   0.0000979500   -0.0000000000   -0.0000007100
  -0.0001077500   -0.0000000000    0.0000001400
   0.0032802100   -0.0000000000    0.0000000000
   0.0030449700   -0.0000000000    0.0000000000
   0.0000566500   -0.0000000000    0.0000000000
   0.0000547000   -0.0000000000    0.0000000000
   0.0000566500   -0.0000000000    0.0000000000
   0.0000547000   -0.0000000000    0.0000000000
  -0.0000003100   -0.0000000000    0.0000000000
  -0.0000007800   -0.0000000000    0.0000000000
   0.0007844000   -0.0000063700    0.0000000000
  -0.0005820300   -0.0000011200    0.0000000000
   0.0007844000    0.0000063700    0.0000000000
  -0.0005820300    0.0000011200    0.0000000000
   0.0000979500    0.0000007100    0.0000000000
  -0.0001077500   -0.0000001400    0.0000000000
   0.0000979500   -0.0000007100    0.0000000000
  -0.0001077500    0.0000001400    0.0000000000
  -0.0000144000   -0.0002257300   -0.0002257300
  -0.0000161100    0.0002243500    0.0002243500
  -0.0000144000    0.0002257300   -0.0002257300
  -0.0000161100   -0.0002243500    0.0002243500
  -0.0000144000   -0.0002257300    0.0002257300
  -0.0000161100    0.0002243500   -0.0002243500
  -0.0000144000    0.0002257300    0.0002257300
  -0.0000161100   -0.0002243500   -0.0002243500

33   
  0.0100000000000000   0.0000000000000000   0.0000000000000000
   0.0007877900   -0.0000000000    0.0000052000
  -0.0005832700   -0.0000000000   -0.0000002200
   0.0001001700   -0.0000000000    0.0000002300
  -0.0001083700   -0.0000000000    0.0000002700
   0.0007877900   -0.0000000000   -0.0000052000
  -0.0005832700   -0.0000000000    0.0000002200
   0.0001001700   -0.0000000000   -0.0000002300
  -0.0001083700   -0.0000000000   -0.0000002700
  -0.0000134500   -0.0002250100    0.0002250100
  -0.0000147400    0.0002247700   -0.0002247700
  -0.0000134500    0.0002250100    0.0002250100
  -0.0000147400   -0.0002247700   -0.0002247700
  -0.0000134500   -0.0002250100   -0.0002250100
  -0.0000147400    0.0002247700    0.0002247700
  -0.0000134500    0.0002250100   -0.0002250100
  -0.0000147400   -0.0002247700    0.0002247700
   0.0032774800   -0.0000000000   -0.0000000000
   0.0030428200   -0.0000000000   -0.0000000000
   0.0000570600   -0.0000000000   -0.0000000000
   0.0000559300   -0.0000000000   -0.0000000000
   0.0000570600   -0.0000000000   -0.0000000000
   0.0000559300   -0.0000000000   -0.0000000000
   0.0000013700   -0.0000000000   -0.0000000000
   0.0000008500   -0.0000000000   -0.0000000000
   0.0007877900   -0.0000052000   -0.0000000000
  -0.0005832700    0.0000002200   -0.0000000000
   0.0007877900    0.0000052000   -0.0000000000
  -0.0005832700   -0.0000002200   -0.0000000000
   0.0001001700   -0.0000002300   -0.0000000000
  -0.0001083700   -0.0000002700   -0.0000000000
   0.0001001700    0.0000002300   -0.0000000000
  -0.0001083700    0.0000002700   -0.0000000000
  -0.0154943900   -0.0000000000   -0.0000000000
   0.0006490800   -0.0000000000   -0.0000000000
  -0.0003101800   -0.0000000000   -0.0000000000
   0.0004825700   -0.0000000000   -0.0000000000
  -0.0003101800   -0.0000000000   -0.0000000000
   0.0004825700   -0.0000000000   -0.0000000000
  -0.0001105700   -0.0000000000   -0.0000000000
   0.0001111600   -0.0000000000   -0.0000000000
   0.0009783300   -0.0000000000   -0.0014540300
   0.0009719500   -0.0000000000    0.0014402500
  -0.0000108400   -0.0000000000   -0.0001239700
  -0.0000099500   -0.0000000000    0.0001229100
   0.0009783300   -0.0000000000    0.0014540300
   0.0009719500   -0.0000000000   -0.0014402500
  -0.0000108400   -0.0000000000    0.0001239700
  -0.0000099500   -0.0000000000   -0.0001229100
  -0.0004090200   -0.0000021700    0.0000021700
   0.0002992700    0.0000001100   -0.0000001100
  -0.0004090200    0.0000021700    0.0000021700
   0.0002992700   -0.0000001100   -0.0000001100
  -0.0004090200   -0.0000021700   -0.0000021700
   0.0002992700    0.0000001100    0.0000001100
  -0.0004090200    0.0000021700   -0.0000021700
   0.0002992700   -0.0000001100    0.0000001100
   0.0009783300    0.0014540300   -0.0000000000
   0.0009719500   -0.0014402500   -0.0000000000
   0.0009783300   -0.0014540300   -0.0000000000
   0.0009719500    0.0014402500   -0.0000000000
  -0.0000108400    0.0001239700   -0.0000000000
  -0.0000099500   -0.0001229100   -0.0000000000
  -0.0000108400   -0.0001239700   -0.0000000000
  -0.0000099500    0.0001229100   -0.0000000000
