phonopy:
  version: 1.13.2
  configuration:
    dim: "2 2 2"
    create_displacements: ".true."

supercell_matrix:
- [   2,   0,   0 ]
- [   0,   2,   0 ]
- [   0,   0,   2 ]

space_group:
  type: "Fm-3m"
  number: 225
  Hall_symbol: "-F 4 2 3"

primitive_cell:
  lattice:
  - [     6.529925454011079,     0.000000000000000,     0.000000000000000 ] # a
  - [     0.000000000000000,     6.529925454011079,     0.000000000000000 ] # b
  - [     0.000000000000000,     0.000000000000000,     6.529925454011079 ] # c
  points:
  - symbol: Na # 1
    coordinates: [  0.000000000000000,  0.000000000000000,  0.000000000000000 ]
    mass: 22.989769
  - symbol: Na # 2
    coordinates: [  0.500000000000000,  0.500000000000000,  0.000000000000000 ]
    mass: 22.989769
  - symbol: Na # 3
    coordinates: [  0.500000000000000,  0.000000000000000,  0.500000000000000 ]
    mass: 22.989769
  - symbol: Na # 4
    coordinates: [  0.000000000000000,  0.500000000000000,  0.500000000000000 ]
    mass: 22.989769
  - symbol: I  # 5
    coordinates: [  0.000000000000000,  0.000000000000000,  0.500000000000000 ]
    mass: 126.904470
  - symbol: I  # 6
    coordinates: [  0.500000000000000,  0.000000000000000,  0.000000000000000 ]
    mass: 126.904470
  - symbol: I  # 7
    coordinates: [  0.000000000000000,  0.500000000000000,  0.000000000000000 ]
    mass: 126.904470
  - symbol: I  # 8
    coordinates: [  0.500000000000000,  0.500000000000000,  0.500000000000000 ]
    mass: 126.904470
  reciprocal_lattice: # without 2pi
  - [     0.153141105062040,     0.000000000000000,     0.000000000000000 ] # a*
  - [     0.000000000000000,     0.153141105062040,     0.000000000000000 ] # b*
  - [     0.000000000000000,     0.000000000000000,     0.153141105062040 ] # c*

unit_cell:
  lattice:
  - [     6.529925454011079,     0.000000000000000,    -0.000000000000000 ] # a
  - [    -0.000000000000000,     6.529925454011079,    -0.000000000000000 ] # b
  - [     0.000000000000000,     0.000000000000000,     6.529925454011079 ] # c
  points:
  - symbol: Na # 1
    coordinates: [ -0.000000000000000,  0.000000000000000, -0.000000000000000 ]
    mass: 22.989769
    reduced_to: 1
  - symbol: Na # 2
    coordinates: [  0.500000000000000,  0.500000000000000, -0.000000000000000 ]
    mass: 22.989769
    reduced_to: 2
  - symbol: Na # 3
    coordinates: [  0.500000000000000, -0.000000000000000,  0.500000000000000 ]
    mass: 22.989769
    reduced_to: 3
  - symbol: Na # 4
    coordinates: [  0.000000000000000,  0.500000000000000,  0.500000000000000 ]
    mass: 22.989769
    reduced_to: 4
  - symbol: I  # 5
    coordinates: [  0.000000000000000,  0.000000000000000,  0.500000000000000 ]
    mass: 126.904470
    reduced_to: 5
  - symbol: I  # 6
    coordinates: [  0.500000000000000, -0.000000000000000,  0.000000000000000 ]
    mass: 126.904470
    reduced_to: 6
  - symbol: I  # 7
    coordinates: [  0.000000000000000,  0.500000000000000, -0.000000000000000 ]
    mass: 126.904470
    reduced_to: 7
  - symbol: I  # 8
    coordinates: [  0.500000000000000,  0.500000000000000,  0.500000000000000 ]
    mass: 126.904470
    reduced_to: 8

supercell:
  lattice:
  - [    13.059850908022158,     0.000000000000000,     0.000000000000000 ] # a
  - [     0.000000000000000,    13.059850908022158,     0.000000000000000 ] # b
  - [     0.000000000000000,     0.000000000000000,    13.059850908022158 ] # c
  points:
  - symbol: Na # 1
    coordinates: [  0.000000000000000,  0.000000000000000,  0.000000000000000 ]
    mass: 22.989769
    reduced_to: 1
  - symbol: Na # 2
    coordinates: [  0.500000000000000,  0.000000000000000,  0.000000000000000 ]
    mass: 22.989769
    reduced_to: 1
  - symbol: Na # 3
    coordinates: [  0.000000000000000,  0.500000000000000,  0.000000000000000 ]
    mass: 22.989769
    reduced_to: 1
  - symbol: Na # 4
    coordinates: [  0.500000000000000,  0.500000000000000,  0.000000000000000 ]
    mass: 22.989769
    reduced_to: 1
  - symbol: Na # 5
    coordinates: [  0.000000000000000,  0.000000000000000,  0.500000000000000 ]
    mass: 22.989769
    reduced_to: 1
  - symbol: Na # 6
    coordinates: [  0.500000000000000,  0.000000000000000,  0.500000000000000 ]
    mass: 22.989769
    reduced_to: 1
  - symbol: Na # 7
    coordinates: [  0.000000000000000,  0.500000000000000,  0.500000000000000 ]
    mass: 22.989769
    reduced_to: 1
  - symbol: Na # 8
    coordinates: [  0.500000000000000,  0.500000000000000,  0.500000000000000 ]
    mass: 22.989769
    reduced_to: 1
  - symbol: Na # 9
    coordinates: [  0.250000000000000,  0.250000000000000,  0.000000000000000 ]
    mass: 22.989769
    reduced_to: 9
  - symbol: Na # 10
    coordinates: [  0.750000000000000,  0.250000000000000,  0.000000000000000 ]
    mass: 22.989769
    reduced_to: 9
  - symbol: Na # 11
    coordinates: [  0.250000000000000,  0.750000000000000,  0.000000000000000 ]
    mass: 22.989769
    reduced_to: 9
  - symbol: Na # 12
    coordinates: [  0.750000000000000,  0.750000000000000,  0.000000000000000 ]
    mass: 22.989769
    reduced_to: 9
  - symbol: Na # 13
    coordinates: [  0.250000000000000,  0.250000000000000,  0.500000000000000 ]
    mass: 22.989769
    reduced_to: 9
  - symbol: Na # 14
    coordinates: [  0.750000000000000,  0.250000000000000,  0.500000000000000 ]
    mass: 22.989769
    reduced_to: 9
  - symbol: Na # 15
    coordinates: [  0.250000000000000,  0.750000000000000,  0.500000000000000 ]
    mass: 22.989769
    reduced_to: 9
  - symbol: Na # 16
    coordinates: [  0.750000000000000,  0.750000000000000,  0.500000000000000 ]
    mass: 22.989769
    reduced_to: 9
  - symbol: Na # 17
    coordinates: [  0.250000000000000,  0.000000000000000,  0.250000000000000 ]
    mass: 22.989769
    reduced_to: 17
  - symbol: Na # 18
    coordinates: [  0.750000000000000,  0.000000000000000,  0.250000000000000 ]
    mass: 22.989769
    reduced_to: 17
  - symbol: Na # 19
    coordinates: [  0.250000000000000,  0.500000000000000,  0.250000000000000 ]
    mass: 22.989769
    reduced_to: 17
  - symbol: Na # 20
    coordinates: [  0.750000000000000,  0.500000000000000,  0.250000000000000 ]
    mass: 22.989769
    reduced_to: 17
  - symbol: Na # 21
    coordinates: [  0.250000000000000,  0.000000000000000,  0.750000000000000 ]
    mass: 22.989769
    reduced_to: 17
  - symbol: Na # 22
    coordinates: [  0.750000000000000,  0.000000000000000,  0.750000000000000 ]
    mass: 22.989769
    reduced_to: 17
  - symbol: Na # 23
    coordinates: [  0.250000000000000,  0.500000000000000,  0.750000000000000 ]
    mass: 22.989769
    reduced_to: 17
  - symbol: Na # 24
    coordinates: [  0.750000000000000,  0.500000000000000,  0.750000000000000 ]
    mass: 22.989769
    reduced_to: 17
  - symbol: Na # 25
    coordinates: [  0.000000000000000,  0.250000000000000,  0.250000000000000 ]
    mass: 22.989769
    reduced_to: 25
  - symbol: Na # 26
    coordinates: [  0.500000000000000,  0.250000000000000,  0.250000000000000 ]
    mass: 22.989769
    reduced_to: 25
  - symbol: Na # 27
    coordinates: [  0.000000000000000,  0.750000000000000,  0.250000000000000 ]
    mass: 22.989769
    reduced_to: 25
  - symbol: Na # 28
    coordinates: [  0.500000000000000,  0.750000000000000,  0.250000000000000 ]
    mass: 22.989769
    reduced_to: 25
  - symbol: Na # 29
    coordinates: [  0.000000000000000,  0.250000000000000,  0.750000000000000 ]
    mass: 22.989769
    reduced_to: 25
  - symbol: Na # 30
    coordinates: [  0.500000000000000,  0.250000000000000,  0.750000000000000 ]
    mass: 22.989769
    reduced_to: 25
  - symbol: Na # 31
    coordinates: [  0.000000000000000,  0.750000000000000,  0.750000000000000 ]
    mass: 22.989769
    reduced_to: 25
  - symbol: Na # 32
    coordinates: [  0.500000000000000,  0.750000000000000,  0.750000000000000 ]
    mass: 22.989769
    reduced_to: 25
  - symbol: I  # 33
    coordinates: [  0.000000000000000,  0.000000000000000,  0.250000000000000 ]
    mass: 126.904470
    reduced_to: 33
  - symbol: I  # 34
    coordinates: [  0.500000000000000,  0.000000000000000,  0.250000000000000 ]
    mass: 126.904470
    reduced_to: 33
  - symbol: I  # 35
    coordinates: [  0.000000000000000,  0.500000000000000,  0.250000000000000 ]
    mass: 126.904470
    reduced_to: 33
  - symbol: I  # 36
    coordinates: [  0.500000000000000,  0.500000000000000,  0.250000000000000 ]
    mass: 126.904470
    reduced_to: 33
  - symbol: I  # 37
    coordinates: [  0.000000000000000,  0.000000000000000,  0.750000000000000 ]
    mass: 126.904470
    reduced_to: 33
  - symbol: I  # 38
    coordinates: [  0.500000000000000,  0.000000000000000,  0.750000000000000 ]
    mass: 126.904470
    reduced_to: 33
  - symbol: I  # 39
    coordinates: [  0.000000000000000,  0.500000000000000,  0.750000000000000 ]
    mass: 126.904470
    reduced_to: 33
  - symbol: I  # 40
    coordinates: [  0.500000000000000,  0.500000000000000,  0.750000000000000 ]
    mass: 126.904470
    reduced_to: 33
  - symbol: I  # 41
    coordinates: [  0.250000000000000,  0.000000000000000,  0.000000000000000 ]
    mass: 126.904470
    reduced_to: 41
  - symbol: I  # 42
    coordinates: [  0.750000000000000,  0.000000000000000,  0.000000000000000 ]
    mass: 126.904470
    reduced_to: 41
  - symbol: I  # 43
    coordinates: [  0.250000000000000,  0.500000000000000,  0.000000000000000 ]
    mass: 126.904470
    reduced_to: 41
  - symbol: I  # 44
    coordinates: [  0.750000000000000,  0.500000000000000,  0.000000000000000 ]
    mass: 126.904470
    reduced_to: 41
  - symbol: I  # 45
    coordinates: [  0.250000000000000,  0.000000000000000,  0.500000000000000 ]
    mass: 126.904470
    reduced_to: 41
  - symbol: I  # 46
    coordinates: [  0.750000000000000,  0.000000000000000,  0.500000000000000 ]
    mass: 126.904470
    reduced_to: 41
  - symbol: I  # 47
    coordinates: [  0.250000000000000,  0.500000000000000,  0.500000000000000 ]
    mass: 126.904470
    reduced_to: 41
  - symbol: I  # 48
    coordinates: [  0.750000000000000,  0.500000000000000,  0.500000000000000 ]
    mass: 126.904470
    reduced_to: 41
  - symbol: I  # 49
    coordinates: [  0.000000000000000,  0.250000000000000,  0.000000000000000 ]
    mass: 126.904470
    reduced_to: 49
  - symbol: I  # 50
    coordinates: [  0.500000000000000,  0.250000000000000,  0.000000000000000 ]
    mass: 126.904470
    reduced_to: 49
  - symbol: I  # 51
    coordinates: [  0.000000000000000,  0.750000000000000,  0.000000000000000 ]
    mass: 126.904470
    reduced_to: 49
  - symbol: I  # 52
    coordinates: [  0.500000000000000,  0.750000000000000,  0.000000000000000 ]
    mass: 126.904470
    reduced_to: 49
  - symbol: I  # 53
    coordinates: [  0.000000000000000,  0.250000000000000,  0.500000000000000 ]
    mass: 126.904470
    reduced_to: 49
  - symbol: I  # 54
    coordinates: [  0.500000000000000,  0.250000000000000,  0.500000000000000 ]
    mass: 126.904470
    reduced_to: 49
  - symbol: I  # 55
    coordinates: [  0.000000000000000,  0.750000000000000,  0.500000000000000 ]
    mass: 126.904470
    reduced_to: 49
  - symbol: I  # 56
    coordinates: [  0.500000000000000,  0.750000000000000,  0.500000000000000 ]
    mass: 126.904470
    reduced_to: 49
  - symbol: I  # 57
    coordinates: [  0.250000000000000,  0.250000000000000,  0.250000000000000 ]
    mass: 126.904470
    reduced_to: 57
  - symbol: I  # 58
    coordinates: [  0.750000000000000,  0.250000000000000,  0.250000000000000 ]
    mass: 126.904470
    reduced_to: 57
  - symbol: I  # 59
    coordinates: [  0.250000000000000,  0.750000000000000,  0.250000000000000 ]
    mass: 126.904470
    reduced_to: 57
  - symbol: I  # 60
    coordinates: [  0.750000000000000,  0.750000000000000,  0.250000000000000 ]
    mass: 126.904470
    reduced_to: 57
  - symbol: I  # 61
    coordinates: [  0.250000000000000,  0.250000000000000,  0.750000000000000 ]
    mass: 126.904470
    reduced_to: 57
  - symbol: I  # 62
    coordinates: [  0.750000000000000,  0.250000000000000,  0.750000000000000 ]
    mass: 126.904470
    reduced_to: 57
  - symbol: I  # 63
    coordinates: [  0.250000000000000,  0.750000000000000,  0.750000000000000 ]
    mass: 126.904470
    reduced_to: 57
  - symbol: I  # 64
    coordinates: [  0.750000000000000,  0.750000000000000,  0.750000000000000 ]
    mass: 126.904470
    reduced_to: 57
