# epsilon and Z* of atoms 1 19
   3.27700393    0.00000000    0.00000000    0.00000000    3.27700393    0.00000000    0.00000000    0.00000000    3.23777407 
  -1.92356818    0.08651412   -0.22371224    0.08651412   -2.02346608   -0.12916032   -0.30468972   -0.17591269   -1.95326707 
   2.96027569    0.02949830   -0.00000000   -0.02949831    2.96027569    0.00000000    0.00000000    0.00000000    2.92990061 
