120  
7    

1    
  0.0100000000000000   0.0000000000000000   0.0000000000000000
  -0.1881292900   -0.0018322200   -0.0531775800
   0.0051041400   -0.0002903600    0.0001488400
   0.0000161400   -0.0041137400   -0.0004935400
  -0.0003482400    0.0028512300   -0.0001619900
  -0.0007503500    0.0045146400   -0.0070447600
   0.0024141400   -0.0006644600    0.0011555900
   0.0011393100   -0.0013211200   -0.0014418200
  -0.0012396600    0.0024443200    0.0011943700
  -0.0068938600    0.0011216700   -0.0002750600
   0.0052919900   -0.0000472000   -0.0006775900
   0.0112892800   -0.0102387200   -0.0012614100
   0.0111456100    0.0109045300   -0.0002759900
   0.0300267200   -0.0224697800    0.0016220400
   0.0146634500    0.0082999300   -0.0003580600
  -0.0037569900   -0.0023124300   -0.0002511000
   0.0037195800    0.0009531000   -0.0003730300
  -0.0030119500   -0.0032080400   -0.0066327400
   0.0026241700    0.0004597800    0.0005972000
  -0.0006903200   -0.0027580200    0.0019821100
   0.0009490300    0.0015064400   -0.0013355600
   0.0084252900    0.0036939000    0.0196882300
   0.0017648200   -0.0003995700   -0.0016318900
   0.0002679700   -0.0009561100   -0.0001734500
  -0.0001830400    0.0009744200    0.0002042700
   0.0000441500   -0.0009608800   -0.0010568700
   0.0010794200    0.0004452000    0.0018063300
  -0.0007021200   -0.0005320200    0.0007327300
   0.0005176700    0.0001860000    0.0001591500
  -0.0007360200   -0.0053882000    0.0089409000
   0.0024113600    0.0005492100   -0.0012915300
  -0.0012403900   -0.0020655500   -0.0014924700
   0.0011342700    0.0015481000    0.0006277600
  -0.0018197500    0.0000111300    0.0010780400
   0.0011018500    0.0000980300   -0.0000888000
   0.0000519900   -0.0005026500    0.0000278700
   0.0000504400    0.0006604300    0.0002511000
   0.0006808200   -0.0005155200    0.0013384300
  -0.0002088100    0.0011099900   -0.0013523100
  -0.0008770400    0.0007249800    0.0009261400
   0.0004491200   -0.0003213000    0.0001029100
   0.0032071000   -0.0005074700    0.0021960700
   0.0055886800    0.0017320800   -0.0133372900
  -0.0000930400    0.0008913600   -0.0004862600
   0.0001463800   -0.0009701100    0.0000396000
   0.0013933300    0.0077567100    0.0126246000
   0.0024738900   -0.0005467000   -0.0013128100
   0.0012428200   -0.0015223800    0.0006897100
  -0.0013572000    0.0014108600   -0.0008685200
   0.0000428500   -0.0001681000   -0.0005236200
   0.0010854000    0.0013970300    0.0024421100
  -0.0006969600    0.0002607800   -0.0002338600
   0.0005192600   -0.0003205600    0.0002230200
  -0.0005669300   -0.0000760400    0.0005321800
   0.0003148700   -0.0000602200    0.0002568600
  -0.0000186600   -0.0001658200    0.0002294800
  -0.0000188000    0.0001630900    0.0002957800
   0.0003129200   -0.0000309600   -0.0006712100
   0.0003192000   -0.0008028900    0.0016874000
   0.0004285100    0.0003136900    0.0000081400
  -0.0006009200   -0.0002196000   -0.0000886600
  -0.0017686100   -0.0000414200    0.0004000400
   0.0009596400   -0.0000250000    0.0002784300
  -0.0000479700   -0.0006069800    0.0003803500
  -0.0000215300    0.0005476600    0.0000138500
  -0.0002390800   -0.0001133700    0.0004293300
   0.0004612400   -0.0001119300    0.0003068700
   0.0001754900   -0.0002771100    0.0003351500
  -0.0001943800    0.0003545300    0.0002349900
  -0.0003311500   -0.0002123400    0.0002207800
   0.0002513100    0.0002981900    0.0003991500
  -0.0001894600    0.0000551100    0.0003298700
   0.0004177800    0.0002021400    0.0004551300
   0.0001241800    0.0002462500    0.0037719200
  -0.0055831300    0.0001656000   -0.0030641400
   0.0005999700    0.0011909100   -0.0002634500
   0.0000693500   -0.0010045200   -0.0001405100
   0.0211096600    0.0035941000   -0.0003523700
  -0.0062500700   -0.0003108400    0.0033735000
   0.0010052700    0.0050884600    0.0027037100
  -0.0021301700   -0.0041468400   -0.0023450000
   0.0297459700    0.0127113600    0.0101227800
  -0.0068770400    0.0001146900    0.0026431800
  -0.0040543000    0.0076080900   -0.0035852800
   0.0020861100   -0.0071250000    0.0020545000
   0.0552832700   -0.0021962400    0.0193058800
  -0.0102457400   -0.0023400900    0.0049002700
  -0.0000970300    0.0015849300    0.0006101400
   0.0005645700   -0.0007604400    0.0003238700
   0.0233686400   -0.0003062500    0.0024348800
  -0.0066333700   -0.0005594500   -0.0023440700
   0.0003475600    0.0062192200   -0.0009166400
  -0.0016699300   -0.0041470500    0.0031727700
   0.0064291900   -0.0021827200    0.0008378600
  -0.0028083300    0.0007392700   -0.0007278900
  -0.0007261100    0.0017513500    0.0010245300
  -0.0010952000   -0.0039556800   -0.0017157900
  -0.0010801000    0.0005205500   -0.0045010900
  -0.0029311800   -0.0000527400    0.0028306800
   0.0003733600    0.0004974800    0.0001493600
   0.0000831500   -0.0004189200   -0.0001315800
   0.0012795400    0.0001339500   -0.0004267700
  -0.0010698600    0.0000095600   -0.0005664000
   0.0000160700    0.0006488300   -0.0008494100
  -0.0002977200   -0.0007490100   -0.0001422500
   0.0009971300   -0.0000447200   -0.0004589000
  -0.0007987400    0.0000344200   -0.0005411400
  -0.0002258000    0.0005189500   -0.0000854000
   0.0000681700   -0.0005165900   -0.0008426200
   0.0004340300    0.0000468600   -0.0002171400
  -0.0005858800    0.0001354900   -0.0011271400
   0.0001175400    0.0000709300   -0.0003165500
   0.0000174900   -0.0001260800   -0.0003125500
   0.0011359800    0.0004444900   -0.0009061200
  -0.0008249700    0.0000311300   -0.0002402800
   0.0000725800    0.0004477400   -0.0000570600
  -0.0004141500   -0.0010192300   -0.0006386000
   0.0049707700   -0.0034659100   -0.0023475300
  -0.0017184200    0.0002149000    0.0004481500
  -0.0008518900    0.0014397400   -0.0009564200
  -0.0003012500   -0.0015442900    0.0011889500

1    
 -0.0100000000000000   0.0000000000000000   0.0000000000000000
   0.1847968800    0.0019208600    0.0511114000
  -0.0050274000    0.0001768500   -0.0001279200
   0.0000482500    0.0039970700    0.0005132600
   0.0004021400   -0.0029607100    0.0001819500
   0.0006206100   -0.0046333500    0.0070747500
  -0.0024645700    0.0005638100   -0.0011679000
  -0.0011943600    0.0012129400    0.0014258900
   0.0011894300   -0.0025355100   -0.0011952800
   0.0069304000   -0.0012190100    0.0002731500
  -0.0052215400    0.0001804500    0.0006974000
  -0.0110648100    0.0101733100    0.0012763800
  -0.0112072200   -0.0109329500    0.0002953300
  -0.0306450600    0.0228820500   -0.0016026600
  -0.0145644000   -0.0081438700    0.0003798500
   0.0036038100    0.0023683300    0.0002665400
  -0.0038405200   -0.0009794700    0.0003948400
   0.0030722600    0.0032189200    0.0066367900
  -0.0025043900   -0.0004610000   -0.0006032100
   0.0008191400    0.0027525700   -0.0019805100
  -0.0008494400   -0.0015001700    0.0013196800
  -0.0084477800   -0.0036128300   -0.0198230400
  -0.0018241600    0.0004938400    0.0016115400
  -0.0003250200    0.0010604600    0.0001719700
   0.0001220800   -0.0008887800   -0.0002003900
   0.0000145200    0.0008642900    0.0010574100
  -0.0010262300   -0.0005411000   -0.0018031100
   0.0007566100    0.0004340700   -0.0007277100
  -0.0004601000   -0.0002831300   -0.0001563800
   0.0006348500    0.0052528300   -0.0089051000
  -0.0024671900   -0.0006529900    0.0012749500
   0.0011888800    0.0019547500    0.0014609200
  -0.0011994400   -0.0016434600   -0.0006392400
   0.0018736200    0.0000888500   -0.0010755500
  -0.0010422100    0.0000020200    0.0000949300
   0.0000047300    0.0005986300   -0.0000273700
   0.0000031900   -0.0005631700   -0.0002488600
  -0.0007944700    0.0005134000   -0.0013321600
   0.0000937100   -0.0011101000    0.0013524500
   0.0007615800   -0.0007239900   -0.0009255900
  -0.0005593600    0.0003221800   -0.0000999000
  -0.0030776100    0.0005031900   -0.0021915400
  -0.0054650400   -0.0017355100    0.0133895600
   0.0002134100   -0.0008999000    0.0004548200
  -0.0000232100    0.0009718200   -0.0000650300
  -0.0015142200   -0.0076137500   -0.0125880400
  -0.0025269800    0.0006532200    0.0012999900
  -0.0012988500    0.0016190000   -0.0007048000
   0.0012969800   -0.0013004500    0.0008439900
   0.0000135800    0.0000622000    0.0005021000
  -0.0010203600   -0.0015014000   -0.0024610000
   0.0007618800   -0.0003680400    0.0002158900
  -0.0004584700    0.0002197200   -0.0002470400
   0.0005087800   -0.0000303300   -0.0005077600
  -0.0003775700   -0.0000485100   -0.0002314300
  -0.0000416700    0.0000578400   -0.0002051100
  -0.0000418200   -0.0002724300   -0.0002710400
  -0.0002623400    0.0001395300    0.0006548800
  -0.0002561100    0.0009102300   -0.0017068400
  -0.0003672500   -0.0002070700   -0.0000309500
   0.0006615500    0.0003321200    0.0000692000
   0.0016472400    0.0000409800   -0.0004159100
  -0.0010809100    0.0000244400   -0.0003045000
  -0.0000751800    0.0006050100   -0.0004030700
  -0.0001036500   -0.0005469200   -0.0000372100
   0.0003654900    0.0001129800   -0.0004026800
  -0.0003378500    0.0001124300   -0.0002827000
  -0.0000526700    0.0002768000   -0.0003087500
   0.0003192900   -0.0003534900   -0.0002093700
   0.0002708900    0.0003164900   -0.0001958100
  -0.0003146300   -0.0001932000   -0.0003752100
   0.0001260700    0.0000517400   -0.0003041700
  -0.0004783900   -0.0000984900   -0.0004309600
  -0.0000949600   -0.0002537200   -0.0037583300
   0.0055554100   -0.0001613200    0.0030681200
  -0.0006072900   -0.0011786700    0.0002671200
  -0.0000707800    0.0010007700    0.0001485400
  -0.0212449100   -0.0032679900    0.0000063000
   0.0062295400    0.0003063600   -0.0033373900
  -0.0009645600   -0.0050728500   -0.0026781000
   0.0021317100    0.0041582300    0.0023574000
  -0.0296886500   -0.0132894900   -0.0104269300
   0.0068408500   -0.0001070600   -0.0026074800
   0.0040379800   -0.0076165000    0.0036204300
  -0.0020138800    0.0070895500   -0.0020187300
  -0.0513808800    0.0018683600   -0.0170121400
   0.0102412500    0.0023483200   -0.0049394100
   0.0000609700   -0.0015401300   -0.0006025100
  -0.0005758700    0.0007336400   -0.0003347200
  -0.0233695200    0.0005848000   -0.0020958200
   0.0066101800    0.0005544100    0.0023266600
  -0.0003194700   -0.0061917700    0.0009165200
   0.0016735800    0.0041551600   -0.0031699400
  -0.0064217000    0.0021733300   -0.0008319800
   0.0028021700   -0.0007286800    0.0007084700
   0.0007203900   -0.0017530500   -0.0010412600
   0.0011044600    0.0039614500    0.0017062900
   0.0010872700   -0.0005279300    0.0044986000
   0.0029170200    0.0000532900   -0.0028182500
  -0.0003770600   -0.0004930800   -0.0001441000
  -0.0000833400    0.0004160500    0.0001330200
  -0.0012759700   -0.0001345700    0.0004168800
   0.0010717600   -0.0000138000    0.0005553600
  -0.0000154800   -0.0006478300    0.0008398500
   0.0002992400    0.0007499300    0.0001339000
  -0.0009974300    0.0000427900    0.0004633100
   0.0007967100   -0.0000301600    0.0005458900
   0.0002225000   -0.0005170300    0.0000918200
  -0.0000692400    0.0005150500    0.0008504700
  -0.0004316500   -0.0000460900    0.0001940300
   0.0005811000   -0.0001334800    0.0011082200
  -0.0001188700   -0.0000650400    0.0002990000
  -0.0000181000    0.0001290900    0.0002918300
  -0.0011344400   -0.0004448700    0.0009146100
   0.0008270400   -0.0000357300    0.0002511100
  -0.0000704100   -0.0004503700    0.0000674800
   0.0004128000    0.0010151100    0.0006503400
  -0.0049755000    0.0034530900    0.0023179000
   0.0017170400   -0.0002135500   -0.0004485500
   0.0008487200   -0.0014412000    0.0009504700
   0.0003129200    0.0015600400   -0.0012133500

1    
  0.0000000000000000   0.0000000000000000   0.0100000000000000
  -0.0518121300   -0.0306385600   -0.1639602400
   0.0001681600   -0.0003312900   -0.0021858000
  -0.0004747600   -0.0003406900   -0.0020364900
  -0.0001408300    0.0002067000   -0.0021846500
  -0.0088895500   -0.0127714100    0.0126016800
   0.0012508100   -0.0008376900   -0.0011049900
  -0.0006623800    0.0002788400   -0.0009515400
   0.0014461900    0.0030847900   -0.0006272900
   0.0003075800    0.0019985800   -0.0081506300
   0.0007197500    0.0000078300   -0.0020174100
   0.0002675800   -0.0001811800   -0.0053170900
   0.0013276200    0.0005023200   -0.0053130200
   0.0018881800   -0.0008099500   -0.0081136200
   0.0009207300    0.0008673000   -0.0053243200
  -0.0001444900    0.0004353600   -0.0053202500
   0.0002418300    0.0006193400   -0.0020178400
  -0.0061936500    0.0116885700    0.0125937100
   0.0015371500    0.0007934200   -0.0009532800
   0.0010518300   -0.0019518600   -0.0006281000
  -0.0015711300   -0.0003989200   -0.0011058000
   0.0195626100    0.0031726600    0.0210387100
  -0.0016476200   -0.0000046400   -0.0011154400
  -0.0002000800    0.0009526400   -0.0009024100
   0.0001731700   -0.0015710900   -0.0012673800
  -0.0004868600    0.0010939100    0.0020532600
   0.0024876700    0.0006201900    0.0039087900
  -0.0001983700   -0.0011430400    0.0020529500
   0.0002623600   -0.0000018600    0.0010125000
   0.0070912400   -0.0115060700    0.0127649700
  -0.0011967400   -0.0012710700   -0.0011329500
  -0.0012292300    0.0017960800   -0.0006558900
   0.0014087300    0.0008382100   -0.0009806000
  -0.0010501100   -0.0001040200    0.0039689900
   0.0001215900    0.0001321500    0.0011944200
  -0.0002216900    0.0002416100    0.0010888400
   0.0000011800    0.0004855800    0.0010893300
   0.0013620000   -0.0007259000    0.0024825500
  -0.0008308400   -0.0015180200    0.0025588600
  -0.0007491700    0.0011685800    0.0025598600
   0.0000266400   -0.0000686800    0.0009607100
   0.0035254100   -0.0002937300   -0.0006570300
  -0.0156067900   -0.0013302900    0.0127571300
   0.0000159700    0.0015117700   -0.0011346300
   0.0000278400   -0.0007123600   -0.0009825200
   0.0126810000    0.0157221100    0.0213737800
  -0.0013420800    0.0010454700   -0.0012951400
   0.0006668000   -0.0005489300   -0.0009326400
  -0.0008878100   -0.0013266100   -0.0011445700
  -0.0010221900    0.0002974700    0.0020423300
   0.0018315800    0.0017297900    0.0038808600
   0.0007598300   -0.0010628000    0.0020417900
   0.0001888800    0.0001293800    0.0010062000
  -0.0005501900    0.0001269600    0.0026246100
  -0.0002737900    0.0000601700    0.0021827500
  -0.0003132600    0.0001216300    0.0017480700
  -0.0002473300    0.0001927000    0.0017487600
  -0.0016637100    0.0001421400    0.0025446500
   0.0006902100   -0.0011198800    0.0025441500
   0.0000091300    0.0001599900    0.0009546600
   0.0001077700    0.0016382000    0.0024690600
  -0.0007275800   -0.0008572900    0.0039494800
   0.0003010800   -0.0002426400    0.0010825100
  -0.0000204600   -0.0003126400    0.0010827200
   0.0000554600    0.0000374200    0.0011869600
  -0.0000405500   -0.0005393500    0.0026258600
   0.0001654500   -0.0003108100    0.0017482300
   0.0000733600   -0.0003342700    0.0017493100
   0.0000403700   -0.0002697200    0.0021830000
   0.0001770100    0.0001734300    0.0020382300
   0.0003564600    0.0003417400    0.0019732300
   0.0002863000    0.0002346200    0.0024130600
   0.0004107700    0.0002429300    0.0019713300
   0.0058885900    0.0001173500   -0.0056127100
  -0.0075522500    0.0010089600   -0.0029363800
  -0.0001314100    0.0009436700   -0.0005530500
   0.0000895900   -0.0013951600   -0.0008820100
  -0.0005135900    0.0070121400    0.0197183200
  -0.0000182000    0.0001059600    0.0034727500
   0.0030872000   -0.0040683600    0.0057370200
  -0.0012337500   -0.0008743500    0.0032731500
   0.0095380600    0.0157743400    0.0318278900
  -0.0001742700   -0.0001693400    0.0034018800
  -0.0005410600    0.0004694800    0.0029825900
   0.0013859000    0.0024968200    0.0068650000
   0.0194182900    0.0003830800    0.0320964200
   0.0028451500   -0.0000511500    0.0069010300
   0.0001272300   -0.0006928400    0.0030093500
  -0.0002536700   -0.0000852900    0.0034274100
   0.0053300400   -0.0029867300    0.0206464500
  -0.0013697000   -0.0006351100    0.0033205800
  -0.0019744400    0.0047039600    0.0058203200
   0.0000795500   -0.0000781000    0.0035164300
   0.0030548200    0.0050682700   -0.0056208700
  -0.0011675900    0.0007806100   -0.0008771300
   0.0007557500   -0.0005898100   -0.0005486600
  -0.0029130900   -0.0070758000   -0.0029424000
  -0.0043293800    0.0016912400   -0.0071809000
   0.0041965900   -0.0001702400   -0.0034761700
   0.0002531400   -0.0009632600   -0.0008912900
  -0.0000743400    0.0004886000   -0.0007788300
   0.0006988300   -0.0006300700   -0.0041088100
  -0.0010248000   -0.0000333700   -0.0026769400
  -0.0002301300    0.0006776700   -0.0031016200
   0.0003925000    0.0002453500   -0.0025352200
   0.0002884300    0.0005244200   -0.0038858700
  -0.0005109800    0.0001008700   -0.0026590300
   0.0002133700   -0.0002333800   -0.0025471700
  -0.0000605700   -0.0006295400   -0.0033256900
   0.0005946900   -0.0000096500   -0.0038977900
  -0.0005697100    0.0002628600   -0.0033368400
  -0.0000946500    0.0003015700   -0.0025617800
  -0.0001698900   -0.0004871500   -0.0026750400
  -0.0001945600    0.0009122300   -0.0040929500
   0.0004042400    0.0002128600   -0.0025290600
   0.0004692300   -0.0005356200   -0.0030911400
  -0.0005365600   -0.0008691400   -0.0026678100
  -0.0007027000   -0.0045661400   -0.0071693100
   0.0003865000   -0.0003082300   -0.0007990200
  -0.0007007600    0.0006950500   -0.0009094000
   0.0019444300    0.0037050900   -0.0034849800

73   
  0.0100000000000000   0.0000000000000000   0.0000000000000000
   0.0001292200    0.0014113900    0.0059096200
  -0.0055348300   -0.0014311800   -0.0075485400
   0.0006355900    0.0009312100   -0.0001220500
   0.0001016500   -0.0009788700    0.0001018900
   0.0296542600   -0.0113853800   -0.0096406500
  -0.0068871800   -0.0036007000    0.0001824800
   0.0020286600    0.0094134100   -0.0013798800
  -0.0040857600   -0.0038953700    0.0005365700
  -0.0010763400    0.0024758700    0.0029321500
  -0.0006893600   -0.0018997600   -0.0007448900
   0.0064663200    0.0034539100   -0.0030476300
  -0.0027723900   -0.0005990600    0.0011691800
  -0.0026668200    0.0006634400    0.0008883900
   0.0048873600   -0.0030413000   -0.0028459800
  -0.0001126500   -0.0033572200    0.0046836300
  -0.0011958700    0.0017025500   -0.0012483800
   0.0318519500    0.0138732300   -0.0088692700
  -0.0099427500    0.0041731200   -0.0006783900
  -0.0025423900    0.0025671300    0.0000555700
   0.0041548200   -0.0059460000   -0.0014654200
  -0.0102355500    0.0000495000    0.0028348900
   0.0552942000   -0.0007266900    0.0200734600
   0.0005416500   -0.0041386700   -0.0002449000
  -0.0001074200    0.0053879200    0.0001310700
  -0.0007696900    0.0002946700   -0.0005095400
   0.0010253500   -0.0003282400    0.0002868900
   0.0000973500   -0.0002914600   -0.0000590200
  -0.0001951900    0.0002171100    0.0002137300
   0.0011043100   -0.0002688800    0.0001850000
  -0.0008572400    0.0003914300   -0.0004190600
  -0.0004474400    0.0003137900    0.0005277700
   0.0000400400   -0.0006696000   -0.0004821700
   0.0004620900   -0.0002326100   -0.0005968000
  -0.0005531400    0.0001889300    0.0005703500
   0.0000460000    0.0004869800    0.0001681300
   0.0001463600   -0.0002705100    0.0000938900
   0.0006557900    0.0002080300    0.0003061300
  -0.0006185500   -0.0003240100   -0.0003094200
   0.0000159200    0.0005138500   -0.0005131200
  -0.0003638600   -0.0003154600    0.0003397600
   0.0007681200    0.0001952700   -0.0009035500
  -0.0008454100   -0.0001163300    0.0006870600
   0.0001202000    0.0005441500    0.0000048000
   0.0001906000   -0.0007058400    0.0004734300
   0.0012475900    0.0004155100    0.0006825600
  -0.0011015200   -0.0005835000   -0.0010348500
  -0.0000145100    0.0005359200   -0.0002416100
  -0.0003306700   -0.0002161400    0.0003778700
   0.0234777100    0.0020355300    0.0054922100
  -0.0065902400   -0.0016037500   -0.0013739800
   0.0003574800    0.0053992800   -0.0019913100
  -0.0016334900   -0.0029997600    0.0000738600
  -0.0029628200   -0.0000119500   -0.0041854400
  -0.0011057200   -0.0000944900    0.0043193000
   0.0003446900   -0.0007887900   -0.0002407500
   0.0000526000    0.0007726700    0.0000852500
   0.0213012100   -0.0006669300    0.0000923800
  -0.0062111700    0.0015617400    0.0000213800
  -0.0020961500    0.0032061300    0.0012279200
   0.0010095700   -0.0057708100   -0.0030982800
   0.0189539000    0.0025750600   -0.0063439200
  -0.0091887100   -0.0007526000    0.0050728900
  -0.0001544800    0.0032317200   -0.0001117300
  -0.0003578600   -0.0030870600    0.0001279200
   0.0045435600    0.0037361400   -0.0035976100
  -0.0018492200   -0.0008290300    0.0009734600
  -0.0001604300    0.0014988200    0.0022434400
  -0.0005800900   -0.0008338000   -0.0004467200
  -0.0008821200    0.0012541300   -0.0006914700
  -0.0003340400   -0.0015035500    0.0019487600
   0.0049372500   -0.0029165600   -0.0006877100
  -0.0017482900    0.0006777400    0.0004018600
  -0.2145812500    0.0006720900   -0.0008661300
   0.0138091800    0.0001927900    0.0008281100
   0.0028572600   -0.0065313900   -0.0009577000
   0.0025237500    0.0063418500    0.0001228100
   0.0120272100   -0.0101444700   -0.0114506300
   0.0120560600    0.0194876300    0.0147478300
  -0.0136927000    0.0046547200   -0.0032139200
   0.0037326500   -0.0019348100   -0.0000027600
   0.0093380800    0.0052830000   -0.0100917400
   0.0081424100   -0.0141678500    0.0146930900
   0.0021220900    0.0012049300    0.0000091600
  -0.0081735200   -0.0033980200   -0.0045457200
  -0.0059549800    0.0000010600   -0.0000185700
   0.0043840900   -0.0002168300    0.0005115700
   0.0002670800   -0.0021643300   -0.0001268300
   0.0006460300    0.0023820300   -0.0004004100
   0.0010705100   -0.0012064000   -0.0024320800
  -0.0001680600    0.0018185500    0.0026193700
  -0.0021759400   -0.0007666000   -0.0001611600
   0.0011757300   -0.0000491800    0.0000114000
  -0.0000022600    0.0003246000   -0.0003054600
  -0.0000030400   -0.0004775600    0.0002741100
   0.0006150100    0.0002605700   -0.0000038600
  -0.0006979600   -0.0000767100    0.0000206800
  -0.0012881200    0.0001191100    0.0000049900
   0.0012790900   -0.0000428800    0.0002805500
   0.0000717100   -0.0007407000   -0.0001017100
   0.0000721900    0.0006537700   -0.0001650100
   0.0002153200   -0.0010727400    0.0018991400
   0.0005494900    0.0008763300   -0.0016752300
  -0.0012998200    0.0001943800   -0.0002295200
   0.0007693000   -0.0000016300   -0.0000042500
  -0.0001692600    0.0019239000    0.0025226800
   0.0010600800   -0.0011050700   -0.0019863200
   0.0011749000    0.0000481800    0.0000036200
  -0.0021702300   -0.0006613200   -0.0005149900
  -0.0273567300    0.0008540500    0.0001035000
   0.0069801000   -0.0000905900   -0.0010932300
   0.0011016800   -0.0034735100    0.0003198700
   0.0011011700    0.0032929100    0.0007256200
   0.0093058300   -0.0134604300    0.0109804300
   0.0080933300    0.0060376900   -0.0089446200
  -0.0081356000   -0.0047508000   -0.0020617700
   0.0021233300    0.0011872600    0.0000043200
   0.0323265000    0.0273534000    0.0054590400
   0.0316828900   -0.0282848500   -0.0133877000
   0.0025349700    0.0000127600   -0.0000070900
  -0.0161815900    0.0004656700    0.0077836600

73   
 -0.0100000000000000   0.0000000000000000   0.0000000000000000
  -0.0000905500   -0.0015255400   -0.0058955600
   0.0056041100    0.0013247200    0.0075856200
  -0.0005713400   -0.0010415900    0.0001415900
  -0.0000378400    0.0008734200   -0.0000806500
  -0.0297794600    0.0117873700    0.0099365700
   0.0068299700    0.0034832400   -0.0001929600
  -0.0020718000   -0.0094686500    0.0013846900
   0.0040062500    0.0038093300   -0.0005406300
   0.0011239400   -0.0023576300   -0.0028821200
   0.0007564800    0.0020021600    0.0007606100
  -0.0063842800   -0.0033387700    0.0030544000
   0.0028388700    0.0007161000   -0.0011626100
   0.0025402600   -0.0006698000   -0.0008810700
  -0.0049875000    0.0030325400    0.0028572200
  -0.0000163100    0.0033454900   -0.0046365600
   0.0010740200   -0.0016939000    0.0012656500
  -0.0321620300   -0.0147777600    0.0094050300
   0.0100724800   -0.0041669000    0.0006621900
   0.0026444500   -0.0025794000   -0.0000575200
  -0.0040209300    0.0059137500    0.0014715700
   0.0102500900    0.0000681800   -0.0028670800
  -0.0513700700    0.0005100600   -0.0178193300
  -0.0005984000    0.0042177000    0.0002430500
   0.0000511600   -0.0052550000   -0.0001321100
   0.0008262400   -0.0003922700    0.0005094500
  -0.0009694800    0.0002301500   -0.0002897700
  -0.0000402400    0.0001929800    0.0000584800
   0.0002539500   -0.0003144600   -0.0002139000
  -0.0011670600    0.0001632600   -0.0002084600
   0.0007949000   -0.0004986500    0.0003929300
   0.0003799000   -0.0004221400   -0.0005490700
  -0.0001037500    0.0005627600    0.0004591500
  -0.0004047700    0.0003314800    0.0005957300
   0.0006140000   -0.0000898500   -0.0005734500
   0.0000111700   -0.0003894000   -0.0001696900
  -0.0000896000    0.0003699300   -0.0000957000
  -0.0007705800   -0.0002077500   -0.0003104600
   0.0005024000    0.0003239300    0.0003078000
  -0.0001306700   -0.0005132000    0.0005131200
   0.0002522400    0.0003151600   -0.0003412400
  -0.0006442500   -0.0001976800    0.0008796100
   0.0009681300    0.0001151100   -0.0007131100
   0.0000050000   -0.0005430000   -0.0000271200
  -0.0000661400    0.0007025200   -0.0004942100
  -0.0013090500   -0.0003086300   -0.0007071100
   0.0010405900    0.0006918500    0.0010100600
  -0.0000467200   -0.0004268100    0.0002174600
   0.0002665000    0.0003262100   -0.0004021700
  -0.0232585700   -0.0022974500   -0.0056586000
   0.0066525300    0.0015158100    0.0013725100
  -0.0003092700   -0.0055130600    0.0019634000
   0.0017096700    0.0028913200   -0.0000863800
   0.0028845600   -0.0000944600    0.0041928100
   0.0010621800   -0.0000197600   -0.0043134100
  -0.0004058200    0.0006775400    0.0002637600
  -0.0001138000   -0.0008794100   -0.0000625200
  -0.0210511000    0.0009730800   -0.0003519700
   0.0062676100   -0.0014655100   -0.0000250100
   0.0021655100   -0.0030923000   -0.0012435100
  -0.0009602100    0.0058859200    0.0030756200
  -0.0204341300   -0.0025676800    0.0052321700
   0.0090390000    0.0007481400   -0.0050558000
   0.0000324800   -0.0032480600    0.0000950300
   0.0002379400    0.0031012100   -0.0001468900
  -0.0044306900   -0.0037454800    0.0036317700
   0.0019792700    0.0008238300   -0.0009389800
   0.0002914500   -0.0015106700   -0.0022385500
   0.0007024800    0.0008380000    0.0004723700
   0.0008175300   -0.0011512200    0.0007166200
   0.0002807600    0.0016241000   -0.0019477100
  -0.0050101100    0.0030293900    0.0007153300
   0.0016884200   -0.0005671300   -0.0003695900
   0.2119312800    0.0006720900   -0.0008038800
  -0.0138440500   -0.0001899800   -0.0008422100
  -0.0028462100    0.0065235400    0.0009585700
  -0.0025168100   -0.0063308700   -0.0001237500
  -0.0120118000    0.0102741100    0.0115534300
  -0.0119832600   -0.0194320800   -0.0146422300
   0.0136558900   -0.0045964100    0.0031716400
  -0.0037338900    0.0019118700   -0.0000028600
  -0.0092985700   -0.0053569900    0.0101537800
  -0.0080928700    0.0141490700   -0.0146256100
  -0.0021245400   -0.0011894300    0.0000090100
   0.0081280300    0.0033608500    0.0045278200
   0.0059514400    0.0000010600   -0.0000185400
  -0.0043905200    0.0002196100   -0.0005135800
  -0.0002665900    0.0021569800    0.0001120100
  -0.0006439300   -0.0023757300    0.0003857800
  -0.0010612900    0.0012135200    0.0024498000
   0.0001691400   -0.0018190000   -0.0025996500
   0.0021727000    0.0007631000    0.0001765100
  -0.0011748600    0.0000421800    0.0000115400
   0.0000032700   -0.0003250200    0.0002986400
   0.0000025700    0.0004786000   -0.0002801300
  -0.0006136300   -0.0002579100   -0.0000037900
   0.0006983700    0.0000764200   -0.0000291800
   0.0012871000   -0.0001189100    0.0000050500
  -0.0012812200    0.0000431200   -0.0002697300
  -0.0000733900    0.0007398800    0.0001100300
  -0.0000729200   -0.0006545300    0.0001740500
  -0.0002151600    0.0010701600   -0.0019063000
  -0.0005565800   -0.0008764000    0.0016743800
   0.0013059000   -0.0001956800    0.0002260800
  -0.0007670300   -0.0000014900   -0.0000043300
   0.0001679800   -0.0019216400   -0.0025121300
  -0.0010716500    0.0011068800    0.0020013500
  -0.0011757400   -0.0000433600    0.0000037600
   0.0021787200    0.0006602000    0.0005323600
   0.0274167200   -0.0008448000    0.0001037200
  -0.0069627900    0.0000924700    0.0010421900
  -0.0011090200    0.0034830800   -0.0003411800
  -0.0011094400   -0.0032977500   -0.0007487000
  -0.0093308400    0.0134695000   -0.0110331000
  -0.0081416000   -0.0059886300    0.0089040300
   0.0081658100    0.0047811500    0.0021037100
  -0.0021230700   -0.0012071700    0.0000043900
  -0.0326375400   -0.0277310900   -0.0056017500
  -0.0313613100    0.0279085300    0.0132292300
  -0.0025354200    0.0000129200   -0.0000072900
   0.0161806500   -0.0006428000   -0.0077737700

73   
  0.0000000000000000   0.0000000000000000   0.0100000000000000
   0.0038195700   -0.0012687700   -0.0056135500
  -0.0030368300   -0.0002544500   -0.0029093200
  -0.0002339600    0.0012970700   -0.0005334000
  -0.0001126800   -0.0008018300   -0.0008625200
  -0.0105213000    0.0153811400    0.0321045700
  -0.0026477400   -0.0011808000    0.0034182400
  -0.0020650900    0.0044506000    0.0068878400
   0.0035610700    0.0027237800    0.0029975500
   0.0017387700   -0.0025027400   -0.0029093200
  -0.0010063100   -0.0008511500   -0.0005334000
  -0.0008110000    0.0039422300   -0.0056135500
   0.0007507500    0.0003033300   -0.0008625200
   0.0012402700   -0.0004459200   -0.0005334000
  -0.0030085700   -0.0026734700   -0.0056135500
   0.0012980500    0.0027571900   -0.0029093200
  -0.0006380700    0.0004985000   -0.0008625200