phonopy:
  version: 1.13.2
  configuration:

supercell_matrix:
- [   2,   0,   0 ]
- [   0,   2,   0 ]
- [   0,   0,   2 ]

space_group:
  type: "Fm-3m"
  number: 225
  Hall_symbol: "-F 4 2 3"

primitive_cell:
  lattice:
  - [     4.618745414004191,     0.000000000000000,     0.000000000000000 ] # a
  - [     0.000000000000000,     4.618745414004191,     0.000000000000000 ] # b
  - [     0.000000000000000,     0.000000000000000,     4.618745414004191 ] # c
  points:
  - symbol: Na # 1
    coordinates: [  0.000000000000000,  0.000000000000000,  0.000000000000000 ]
    mass: 22.989769
  - symbol: Na # 2
    coordinates: [  0.000000000000000,  0.500000000000000,  0.500000000000000 ]
    mass: 22.989769
  - symbol: Na # 3
    coordinates: [  0.500000000000000,  0.000000000000000,  0.500000000000000 ]
    mass: 22.989769
  - symbol: Na # 4
    coordinates: [  0.500000000000000,  0.500000000000000,  0.000000000000000 ]
    mass: 22.989769
  - symbol: F  # 5
    coordinates: [  0.500000000000000,  0.500000000000000,  0.500000000000000 ]
    mass: 18.998403
  - symbol: F  # 6
    coordinates: [  0.500000000000000,  0.000000000000000,  0.000000000000000 ]
    mass: 18.998403
  - symbol: F  # 7
    coordinates: [  0.000000000000000,  0.500000000000000,  0.000000000000000 ]
    mass: 18.998403
  - symbol: F  # 8
    coordinates: [  0.000000000000000,  0.000000000000000,  0.500000000000000 ]
    mass: 18.998403
  reciprocal_lattice: # without 2pi
  - [     0.216509010643446,     0.000000000000000,     0.000000000000000 ] # a*
  - [     0.000000000000000,     0.216509010643446,     0.000000000000000 ] # b*
  - [     0.000000000000000,     0.000000000000000,     0.216509010643446 ] # c*

unit_cell:
  lattice:
  - [     4.618745414004191,    -0.000000000000000,    -0.000000000000000 ] # a
  - [    -0.000000000000000,     4.618745414004191,    -0.000000000000000 ] # b
  - [     0.000000000000000,     0.000000000000000,     4.618745414004191 ] # c
  points:
  - symbol: Na # 1
    coordinates: [  0.000000000000000, -0.000000000000000, -0.000000000000000 ]
    mass: 22.989769
    reduced_to: 1
  - symbol: Na # 2
    coordinates: [  0.000000000000000,  0.500000000000000,  0.500000000000000 ]
    mass: 22.989769
    reduced_to: 2
  - symbol: Na # 3
    coordinates: [  0.500000000000000, -0.000000000000000,  0.500000000000000 ]
    mass: 22.989769
    reduced_to: 3
  - symbol: Na # 4
    coordinates: [  0.500000000000000,  0.500000000000000, -0.000000000000000 ]
    mass: 22.989769
    reduced_to: 4
  - symbol: F  # 5
    coordinates: [  0.500000000000000,  0.500000000000000,  0.500000000000000 ]
    mass: 18.998403
    reduced_to: 5
  - symbol: F  # 6
    coordinates: [  0.500000000000000, -0.000000000000000, -0.000000000000000 ]
    mass: 18.998403
    reduced_to: 6
  - symbol: F  # 7
    coordinates: [ -0.000000000000000,  0.500000000000000,  0.000000000000000 ]
    mass: 18.998403
    reduced_to: 7
  - symbol: F  # 8
    coordinates: [  0.000000000000000, -0.000000000000000,  0.500000000000000 ]
    mass: 18.998403
    reduced_to: 8

supercell:
  lattice:
  - [     9.237490828008383,     0.000000000000000,     0.000000000000000 ] # a
  - [     0.000000000000000,     9.237490828008383,     0.000000000000000 ] # b
  - [     0.000000000000000,     0.000000000000000,     9.237490828008383 ] # c
  points:
  - symbol: Na # 1
    coordinates: [  0.000000000000000,  0.000000000000000,  0.000000000000000 ]
    mass: 22.989769
    reduced_to: 1
  - symbol: Na # 2
    coordinates: [  0.500000000000000,  0.000000000000000,  0.000000000000000 ]
    mass: 22.989769
    reduced_to: 1
  - symbol: Na # 3
    coordinates: [  0.000000000000000,  0.500000000000000,  0.000000000000000 ]
    mass: 22.989769
    reduced_to: 1
  - symbol: Na # 4
    coordinates: [  0.500000000000000,  0.500000000000000,  0.000000000000000 ]
    mass: 22.989769
    reduced_to: 1
  - symbol: Na # 5
    coordinates: [  0.000000000000000,  0.000000000000000,  0.500000000000000 ]
    mass: 22.989769
    reduced_to: 1
  - symbol: Na # 6
    coordinates: [  0.500000000000000,  0.000000000000000,  0.500000000000000 ]
    mass: 22.989769
    reduced_to: 1
  - symbol: Na # 7
    coordinates: [  0.000000000000000,  0.500000000000000,  0.500000000000000 ]
    mass: 22.989769
    reduced_to: 1
  - symbol: Na # 8
    coordinates: [  0.500000000000000,  0.500000000000000,  0.500000000000000 ]
    mass: 22.989769
    reduced_to: 1
  - symbol: Na # 9
    coordinates: [  0.000000000000000,  0.250000000000000,  0.250000000000000 ]
    mass: 22.989769
    reduced_to: 9
  - symbol: Na # 10
    coordinates: [  0.500000000000000,  0.250000000000000,  0.250000000000000 ]
    mass: 22.989769
    reduced_to: 9
  - symbol: Na # 11
    coordinates: [  0.000000000000000,  0.750000000000000,  0.250000000000000 ]
    mass: 22.989769
    reduced_to: 9
  - symbol: Na # 12
    coordinates: [  0.500000000000000,  0.750000000000000,  0.250000000000000 ]
    mass: 22.989769
    reduced_to: 9
  - symbol: Na # 13
    coordinates: [  0.000000000000000,  0.250000000000000,  0.750000000000000 ]
    mass: 22.989769
    reduced_to: 9
  - symbol: Na # 14
    coordinates: [  0.500000000000000,  0.250000000000000,  0.750000000000000 ]
    mass: 22.989769
    reduced_to: 9
  - symbol: Na # 15
    coordinates: [  0.000000000000000,  0.750000000000000,  0.750000000000000 ]
    mass: 22.989769
    reduced_to: 9
  - symbol: Na # 16
    coordinates: [  0.500000000000000,  0.750000000000000,  0.750000000000000 ]
    mass: 22.989769
    reduced_to: 9
  - symbol: Na # 17
    coordinates: [  0.250000000000000,  0.000000000000000,  0.250000000000000 ]
    mass: 22.989769
    reduced_to: 17
  - symbol: Na # 18
    coordinates: [  0.750000000000000,  0.000000000000000,  0.250000000000000 ]
    mass: 22.989769
    reduced_to: 17
  - symbol: Na # 19
    coordinates: [  0.250000000000000,  0.500000000000000,  0.250000000000000 ]
    mass: 22.989769
    reduced_to: 17
  - symbol: Na # 20
    coordinates: [  0.750000000000000,  0.500000000000000,  0.250000000000000 ]
    mass: 22.989769
    reduced_to: 17
  - symbol: Na # 21
    coordinates: [  0.250000000000000,  0.000000000000000,  0.750000000000000 ]
    mass: 22.989769
    reduced_to: 17
  - symbol: Na # 22
    coordinates: [  0.750000000000000,  0.000000000000000,  0.750000000000000 ]
    mass: 22.989769
    reduced_to: 17
  - symbol: Na # 23
    coordinates: [  0.250000000000000,  0.500000000000000,  0.750000000000000 ]
    mass: 22.989769
    reduced_to: 17
  - symbol: Na # 24
    coordinates: [  0.750000000000000,  0.500000000000000,  0.750000000000000 ]
    mass: 22.989769
    reduced_to: 17
  - symbol: Na # 25
    coordinates: [  0.250000000000000,  0.250000000000000,  0.000000000000000 ]
    mass: 22.989769
    reduced_to: 25
  - symbol: Na # 26
    coordinates: [  0.750000000000000,  0.250000000000000,  0.000000000000000 ]
    mass: 22.989769
    reduced_to: 25
  - symbol: Na # 27
    coordinates: [  0.250000000000000,  0.750000000000000,  0.000000000000000 ]
    mass: 22.989769
    reduced_to: 25
  - symbol: Na # 28
    coordinates: [  0.750000000000000,  0.750000000000000,  0.000000000000000 ]
    mass: 22.989769
    reduced_to: 25
  - symbol: Na # 29
    coordinates: [  0.250000000000000,  0.250000000000000,  0.500000000000000 ]
    mass: 22.989769
    reduced_to: 25
  - symbol: Na # 30
    coordinates: [  0.750000000000000,  0.250000000000000,  0.500000000000000 ]
    mass: 22.989769
    reduced_to: 25
  - symbol: Na # 31
    coordinates: [  0.250000000000000,  0.750000000000000,  0.500000000000000 ]
    mass: 22.989769
    reduced_to: 25
  - symbol: Na # 32
    coordinates: [  0.750000000000000,  0.750000000000000,  0.500000000000000 ]
    mass: 22.989769
    reduced_to: 25
  - symbol: F  # 33
    coordinates: [  0.250000000000000,  0.250000000000000,  0.250000000000000 ]
    mass: 18.998403
    reduced_to: 33
  - symbol: F  # 34
    coordinates: [  0.750000000000000,  0.250000000000000,  0.250000000000000 ]
    mass: 18.998403
    reduced_to: 33
  - symbol: F  # 35
    coordinates: [  0.250000000000000,  0.750000000000000,  0.250000000000000 ]
    mass: 18.998403
    reduced_to: 33
  - symbol: F  # 36
    coordinates: [  0.750000000000000,  0.750000000000000,  0.250000000000000 ]
    mass: 18.998403
    reduced_to: 33
  - symbol: F  # 37
    coordinates: [  0.250000000000000,  0.250000000000000,  0.750000000000000 ]
    mass: 18.998403
    reduced_to: 33
  - symbol: F  # 38
    coordinates: [  0.750000000000000,  0.250000000000000,  0.750000000000000 ]
    mass: 18.998403
    reduced_to: 33
  - symbol: F  # 39
    coordinates: [  0.250000000000000,  0.750000000000000,  0.750000000000000 ]
    mass: 18.998403
    reduced_to: 33
  - symbol: F  # 40
    coordinates: [  0.750000000000000,  0.750000000000000,  0.750000000000000 ]
    mass: 18.998403
    reduced_to: 33
  - symbol: F  # 41
    coordinates: [  0.250000000000000,  0.000000000000000,  0.000000000000000 ]
    mass: 18.998403
    reduced_to: 41
  - symbol: F  # 42
    coordinates: [  0.750000000000000,  0.000000000000000,  0.000000000000000 ]
    mass: 18.998403
    reduced_to: 41
  - symbol: F  # 43
    coordinates: [  0.250000000000000,  0.500000000000000,  0.000000000000000 ]
    mass: 18.998403
    reduced_to: 41
  - symbol: F  # 44
    coordinates: [  0.750000000000000,  0.500000000000000,  0.000000000000000 ]
    mass: 18.998403
    reduced_to: 41
  - symbol: F  # 45
    coordinates: [  0.250000000000000,  0.000000000000000,  0.500000000000000 ]
    mass: 18.998403
    reduced_to: 41
  - symbol: F  # 46
    coordinates: [  0.750000000000000,  0.000000000000000,  0.500000000000000 ]
    mass: 18.998403
    reduced_to: 41
  - symbol: F  # 47
    coordinates: [  0.250000000000000,  0.500000000000000,  0.500000000000000 ]
    mass: 18.998403
    reduced_to: 41
  - symbol: F  # 48
    coordinates: [  0.750000000000000,  0.500000000000000,  0.500000000000000 ]
    mass: 18.998403
    reduced_to: 41
  - symbol: F  # 49
    coordinates: [  0.000000000000000,  0.250000000000000,  0.000000000000000 ]
    mass: 18.998403
    reduced_to: 49
  - symbol: F  # 50
    coordinates: [  0.500000000000000,  0.250000000000000,  0.000000000000000 ]
    mass: 18.998403
    reduced_to: 49
  - symbol: F  # 51
    coordinates: [  0.000000000000000,  0.750000000000000,  0.000000000000000 ]
    mass: 18.998403
    reduced_to: 49
  - symbol: F  # 52
    coordinates: [  0.500000000000000,  0.750000000000000,  0.000000000000000 ]
    mass: 18.998403
    reduced_to: 49
  - symbol: F  # 53
    coordinates: [  0.000000000000000,  0.250000000000000,  0.500000000000000 ]
    mass: 18.998403
    reduced_to: 49
  - symbol: F  # 54
    coordinates: [  0.500000000000000,  0.250000000000000,  0.500000000000000 ]
    mass: 18.998403
    reduced_to: 49
  - symbol: F  # 55
    coordinates: [  0.000000000000000,  0.750000000000000,  0.500000000000000 ]
    mass: 18.998403
    reduced_to: 49
  - symbol: F  # 56
    coordinates: [  0.500000000000000,  0.750000000000000,  0.500000000000000 ]
    mass: 18.998403
    reduced_to: 49
  - symbol: F  # 57
    coordinates: [  0.000000000000000,  0.000000000000000,  0.250000000000000 ]
    mass: 18.998403
    reduced_to: 57
  - symbol: F  # 58
    coordinates: [  0.500000000000000,  0.000000000000000,  0.250000000000000 ]
    mass: 18.998403
    reduced_to: 57
  - symbol: F  # 59
    coordinates: [  0.000000000000000,  0.500000000000000,  0.250000000000000 ]
    mass: 18.998403
    reduced_to: 57
  - symbol: F  # 60
    coordinates: [  0.500000000000000,  0.500000000000000,  0.250000000000000 ]
    mass: 18.998403
    reduced_to: 57
  - symbol: F  # 61
    coordinates: [  0.000000000000000,  0.000000000000000,  0.750000000000000 ]
    mass: 18.998403
    reduced_to: 57
  - symbol: F  # 62
    coordinates: [  0.500000000000000,  0.000000000000000,  0.750000000000000 ]
    mass: 18.998403
    reduced_to: 57
  - symbol: F  # 63
    coordinates: [  0.000000000000000,  0.500000000000000,  0.750000000000000 ]
    mass: 18.998403
    reduced_to: 57
  - symbol: F  # 64
    coordinates: [  0.500000000000000,  0.500000000000000,  0.750000000000000 ]
    mass: 18.998403
    reduced_to: 57
