# epsilon and Z* of atoms 1 2
  17.65904720    0.00000000    0.00000000    0.00000000   17.65904720    0.00000000    0.00000000    0.00000000    9.64159303 
   0.89195275    0.00000000    0.00000000    0.00000000    0.89195275   -0.00000000    0.00000000    0.00000000    0.85853831 
  -0.44597637   -0.00000000   -0.00000000    0.00000000   -0.44597637    0.00000000    0.00000000    0.00000000   -0.42926916 
