natom:  144
displacements:
- atom:    1
  displacement:
    [   0.0100000000000000,  0.0000000000000000,  0.0000000000000000 ]
- atom:    1
  displacement:
    [   0.0000000000000000,  0.0000000000000000,  0.0100000000000000 ]
- atom:   49
  displacement:
    [   0.0100000000000000,  0.0000000000000000,  0.0000000000000000 ]
- atom:   49
  displacement:
    [   0.0000000000000000,  0.0000000000000000,  0.0100000000000000 ]
- atom:   49
  displacement:
    [   0.0000000000000000,  0.0000000000000000, -0.0100000000000000 ]
lattice:
- [    14.1226497999999996,     0.0000000000000000,     0.0000000000000000 ] # a
- [    -7.0613248799999999,    12.2305734400000006,     0.0000000000000000 ] # b
- [     0.0000000000000000,     0.0000000000000000,    17.4808988699999972 ] # c
atoms:
- symbol: Fe # 1
  position: [  0.0000000000000000,  0.0000000000000000,  0.0000000000000000 ]
  mass: 55.845000
- symbol: Fe # 2
  position: [  0.2500000000000000,  0.0000000000000000,  0.0000000000000000 ]
  mass: 55.845000
- symbol: Fe # 3
  position: [  0.5000000000000000,  0.0000000000000000,  0.0000000000000000 ]
  mass: 55.845000
- symbol: Fe # 4
  position: [  0.7500000000000000,  0.0000000000000000,  0.0000000000000000 ]
  mass: 55.845000
- symbol: Fe # 5
  position: [  0.0000000000000000,  0.2500000000000000,  0.0000000000000000 ]
  mass: 55.845000
- symbol: Fe # 6
  position: [  0.2500000000000000,  0.2500000000000000,  0.0000000000000000 ]
  mass: 55.845000
- symbol: Fe # 7
  position: [  0.5000000000000000,  0.2500000000000000,  0.0000000000000000 ]
  mass: 55.845000
- symbol: Fe # 8
  position: [  0.7500000000000000,  0.2500000000000000,  0.0000000000000000 ]
  mass: 55.845000
- symbol: Fe # 9
  position: [  0.0000000000000000,  0.5000000000000000,  0.0000000000000000 ]
  mass: 55.845000
- symbol: Fe # 10
  position: [  0.2500000000000000,  0.5000000000000000,  0.0000000000000000 ]
  mass: 55.845000
- symbol: Fe # 11
  position: [  0.5000000000000000,  0.5000000000000000,  0.0000000000000000 ]
  mass: 55.845000
- symbol: Fe # 12
  position: [  0.7500000000000000,  0.5000000000000000,  0.0000000000000000 ]
  mass: 55.845000
- symbol: Fe # 13
  position: [  0.0000000000000000,  0.7500000000000000,  0.0000000000000000 ]
  mass: 55.845000
- symbol: Fe # 14
  position: [  0.2500000000000000,  0.7500000000000000,  0.0000000000000000 ]
  mass: 55.845000
- symbol: Fe # 15
  position: [  0.5000000000000000,  0.7500000000000000,  0.0000000000000000 ]
  mass: 55.845000
- symbol: Fe # 16
  position: [  0.7500000000000000,  0.7500000000000000,  0.0000000000000000 ]
  mass: 55.845000
- symbol: Fe # 17
  position: [  0.0000000000000000,  0.0000000000000000,  0.3333333333333333 ]
  mass: 55.845000
- symbol: Fe # 18
  position: [  0.2500000000000000,  0.0000000000000000,  0.3333333333333333 ]
  mass: 55.845000
- symbol: Fe # 19
  position: [  0.5000000000000000,  0.0000000000000000,  0.3333333333333333 ]
  mass: 55.845000
- symbol: Fe # 20
  position: [  0.7500000000000000,  0.0000000000000000,  0.3333333333333333 ]
  mass: 55.845000
- symbol: Fe # 21
  position: [  0.0000000000000000,  0.2500000000000000,  0.3333333333333333 ]
  mass: 55.845000
- symbol: Fe # 22
  position: [  0.2500000000000000,  0.2500000000000000,  0.3333333333333333 ]
  mass: 55.845000
- symbol: Fe # 23
  position: [  0.5000000000000000,  0.2500000000000000,  0.3333333333333333 ]
  mass: 55.845000
- symbol: Fe # 24
  position: [  0.7500000000000000,  0.2500000000000000,  0.3333333333333333 ]
  mass: 55.845000
- symbol: Fe # 25
  position: [  0.0000000000000000,  0.5000000000000000,  0.3333333333333333 ]
  mass: 55.845000
- symbol: Fe # 26
  position: [  0.2500000000000000,  0.5000000000000000,  0.3333333333333333 ]
  mass: 55.845000
- symbol: Fe # 27
  position: [  0.5000000000000000,  0.5000000000000000,  0.3333333333333333 ]
  mass: 55.845000
- symbol: Fe # 28
  position: [  0.7500000000000000,  0.5000000000000000,  0.3333333333333333 ]
  mass: 55.845000
- symbol: Fe # 29
  position: [  0.0000000000000000,  0.7500000000000000,  0.3333333333333333 ]
  mass: 55.845000
- symbol: Fe # 30
  position: [  0.2500000000000000,  0.7500000000000000,  0.3333333333333333 ]
  mass: 55.845000
- symbol: Fe # 31
  position: [  0.5000000000000000,  0.7500000000000000,  0.3333333333333333 ]
  mass: 55.845000
- symbol: Fe # 32
  position: [  0.7500000000000000,  0.7500000000000000,  0.3333333333333333 ]
  mass: 55.845000
- symbol: Fe # 33
  position: [  0.0000000000000000,  0.0000000000000000,  0.6666666666666666 ]
  mass: 55.845000
- symbol: Fe # 34
  position: [  0.2500000000000000,  0.0000000000000000,  0.6666666666666666 ]
  mass: 55.845000
- symbol: Fe # 35
  position: [  0.5000000000000000,  0.0000000000000000,  0.6666666666666666 ]
  mass: 55.845000
- symbol: Fe # 36
  position: [  0.7500000000000000,  0.0000000000000000,  0.6666666666666666 ]
  mass: 55.845000
- symbol: Fe # 37
  position: [  0.0000000000000000,  0.2500000000000000,  0.6666666666666666 ]
  mass: 55.845000
- symbol: Fe # 38
  position: [  0.2500000000000000,  0.2500000000000000,  0.6666666666666666 ]
  mass: 55.845000
- symbol: Fe # 39
  position: [  0.5000000000000000,  0.2500000000000000,  0.6666666666666666 ]
  mass: 55.845000
- symbol: Fe # 40
  position: [  0.7500000000000000,  0.2500000000000000,  0.6666666666666666 ]
  mass: 55.845000
- symbol: Fe # 41
  position: [  0.0000000000000000,  0.5000000000000000,  0.6666666666666666 ]
  mass: 55.845000
- symbol: Fe # 42
  position: [  0.2500000000000000,  0.5000000000000000,  0.6666666666666666 ]
  mass: 55.845000
- symbol: Fe # 43
  position: [  0.5000000000000000,  0.5000000000000000,  0.6666666666666666 ]
  mass: 55.845000
- symbol: Fe # 44
  position: [  0.7500000000000000,  0.5000000000000000,  0.6666666666666666 ]
  mass: 55.845000
- symbol: Fe # 45
  position: [  0.0000000000000000,  0.7500000000000000,  0.6666666666666666 ]
  mass: 55.845000
- symbol: Fe # 46
  position: [  0.2500000000000000,  0.7500000000000000,  0.6666666666666666 ]
  mass: 55.845000
- symbol: Fe # 47
  position: [  0.5000000000000000,  0.7500000000000000,  0.6666666666666666 ]
  mass: 55.845000
- symbol: Fe # 48
  position: [  0.7500000000000000,  0.7500000000000000,  0.6666666666666666 ]
  mass: 55.845000
- symbol: Br # 49
  position: [  0.1666666675000000,  0.0833333325000000,  0.2606427933333333 ]
  mass: 79.904000
- symbol: Br # 50
  position: [  0.4166666675000000,  0.0833333325000000,  0.2606427933333333 ]
  mass: 79.904000
- symbol: Br # 51
  position: [  0.6666666675000000,  0.0833333325000000,  0.2606427933333333 ]
  mass: 79.904000
- symbol: Br # 52
  position: [  0.9166666675000000,  0.0833333325000000,  0.2606427933333333 ]
  mass: 79.904000
- symbol: Br # 53
  position: [  0.1666666675000000,  0.3333333325000000,  0.2606427933333333 ]
  mass: 79.904000
- symbol: Br # 54
  position: [  0.4166666675000000,  0.3333333325000000,  0.2606427933333333 ]
  mass: 79.904000
- symbol: Br # 55
  position: [  0.6666666675000000,  0.3333333325000000,  0.2606427933333333 ]
  mass: 79.904000
- symbol: Br # 56
  position: [  0.9166666675000000,  0.3333333325000000,  0.2606427933333333 ]
  mass: 79.904000
- symbol: Br # 57
  position: [  0.1666666675000000,  0.5833333325000000,  0.2606427933333333 ]
  mass: 79.904000
- symbol: Br # 58
  position: [  0.4166666675000000,  0.5833333325000000,  0.2606427933333333 ]
  mass: 79.904000
- symbol: Br # 59
  position: [  0.6666666675000000,  0.5833333325000000,  0.2606427933333333 ]
  mass: 79.904000
- symbol: Br # 60
  position: [  0.9166666675000000,  0.5833333325000000,  0.2606427933333333 ]
  mass: 79.904000
- symbol: Br # 61
  position: [  0.1666666675000000,  0.8333333325000000,  0.2606427933333333 ]
  mass: 79.904000
- symbol: Br # 62
  position: [  0.4166666675000000,  0.8333333325000000,  0.2606427933333333 ]
  mass: 79.904000
- symbol: Br # 63
  position: [  0.6666666675000000,  0.8333333325000000,  0.2606427933333333 ]
  mass: 79.904000
- symbol: Br # 64
  position: [  0.9166666675000000,  0.8333333325000000,  0.2606427933333333 ]
  mass: 79.904000
- symbol: Br # 65
  position: [  0.1666666675000000,  0.0833333325000000,  0.5939761266666667 ]
  mass: 79.904000
- symbol: Br # 66
  position: [  0.4166666675000000,  0.0833333325000000,  0.5939761266666667 ]
  mass: 79.904000
- symbol: Br # 67
  position: [  0.6666666675000000,  0.0833333325000000,  0.5939761266666667 ]
  mass: 79.904000
- symbol: Br # 68
  position: [  0.9166666675000000,  0.0833333325000000,  0.5939761266666667 ]
  mass: 79.904000
- symbol: Br # 69
  position: [  0.1666666675000000,  0.3333333325000000,  0.5939761266666667 ]
  mass: 79.904000
- symbol: Br # 70
  position: [  0.4166666675000000,  0.3333333325000000,  0.5939761266666667 ]
  mass: 79.904000
- symbol: Br # 71
  position: [  0.6666666675000000,  0.3333333325000000,  0.5939761266666667 ]
  mass: 79.904000
- symbol: Br # 72
  position: [  0.9166666675000000,  0.3333333325000000,  0.5939761266666667 ]
  mass: 79.904000
- symbol: Br # 73
  position: [  0.1666666675000000,  0.5833333325000000,  0.5939761266666667 ]
  mass: 79.904000
- symbol: Br # 74
  position: [  0.4166666675000000,  0.5833333325000000,  0.5939761266666667 ]
  mass: 79.904000
- symbol: Br # 75
  position: [  0.6666666675000000,  0.5833333325000000,  0.5939761266666667 ]
  mass: 79.904000
- symbol: Br # 76
  position: [  0.9166666675000000,  0.5833333325000000,  0.5939761266666667 ]
  mass: 79.904000
- symbol: Br # 77
  position: [  0.1666666675000000,  0.8333333325000000,  0.5939761266666667 ]
  mass: 79.904000
- symbol: Br # 78
  position: [  0.4166666675000000,  0.8333333325000000,  0.5939761266666667 ]
  mass: 79.904000
- symbol: Br # 79
  position: [  0.6666666675000000,  0.8333333325000000,  0.5939761266666667 ]
  mass: 79.904000
- symbol: Br # 80
  position: [  0.9166666675000000,  0.8333333325000000,  0.5939761266666667 ]
  mass: 79.904000
- symbol: Br # 81
  position: [  0.1666666675000000,  0.0833333325000000,  0.9273094600000000 ]
  mass: 79.904000
- symbol: Br # 82
  position: [  0.4166666675000000,  0.0833333325000000,  0.9273094600000000 ]
  mass: 79.904000
- symbol: Br # 83
  position: [  0.6666666675000000,  0.0833333325000000,  0.9273094600000000 ]
  mass: 79.904000
- symbol: Br # 84
  position: [  0.9166666675000000,  0.0833333325000000,  0.9273094600000000 ]
  mass: 79.904000
- symbol: Br # 85
  position: [  0.1666666675000000,  0.3333333325000000,  0.9273094600000000 ]
  mass: 79.904000
- symbol: Br # 86
  position: [  0.4166666675000000,  0.3333333325000000,  0.9273094600000000 ]
  mass: 79.904000
- symbol: Br # 87
  position: [  0.6666666675000000,  0.3333333325000000,  0.9273094600000000 ]
  mass: 79.904000
- symbol: Br # 88
  position: [  0.9166666675000000,  0.3333333325000000,  0.9273094600000000 ]
  mass: 79.904000
- symbol: Br # 89
  position: [  0.1666666675000000,  0.5833333325000000,  0.9273094600000000 ]
  mass: 79.904000
- symbol: Br # 90
  position: [  0.4166666675000000,  0.5833333325000000,  0.9273094600000000 ]
  mass: 79.904000
- symbol: Br # 91
  position: [  0.6666666675000000,  0.5833333325000000,  0.9273094600000000 ]
  mass: 79.904000
- symbol: Br # 92
  position: [  0.9166666675000000,  0.5833333325000000,  0.9273094600000000 ]
  mass: 79.904000
- symbol: Br # 93
  position: [  0.1666666675000000,  0.8333333325000000,  0.9273094600000000 ]
  mass: 79.904000
- symbol: Br # 94
  position: [  0.4166666675000000,  0.8333333325000000,  0.9273094600000000 ]
  mass: 79.904000
- symbol: Br # 95
  position: [  0.6666666675000000,  0.8333333325000000,  0.9273094600000000 ]
  mass: 79.904000
- symbol: Br # 96
  position: [  0.9166666675000000,  0.8333333325000000,  0.9273094600000000 ]
  mass: 79.904000
- symbol: Br # 97
  position: [  0.0833333325000000,  0.1666666675000000,  0.0726905400000000 ]
  mass: 79.904000
- symbol: Br # 98
  position: [  0.3333333325000000,  0.1666666675000000,  0.0726905400000000 ]
  mass: 79.904000
- symbol: Br # 99
  position: [  0.5833333325000000,  0.1666666675000000,  0.0726905400000000 ]
  mass: 79.904000
- symbol: Br # 100
  position: [  0.8333333325000000,  0.1666666675000000,  0.0726905400000000 ]
  mass: 79.904000
- symbol: Br # 101
  position: [  0.0833333325000000,  0.4166666675000000,  0.0726905400000000 ]
  mass: 79.904000
- symbol: Br # 102
  position: [  0.3333333325000000,  0.4166666675000000,  0.0726905400000000 ]
  mass: 79.904000
- symbol: Br # 103
  position: [  0.5833333325000000,  0.4166666675000000,  0.0726905400000000 ]
  mass: 79.904000
- symbol: Br # 104
  position: [  0.8333333325000000,  0.4166666675000000,  0.0726905400000000 ]
  mass: 79.904000
- symbol: Br # 105
  position: [  0.0833333325000000,  0.6666666675000000,  0.0726905400000000 ]
  mass: 79.904000
- symbol: Br # 106
  position: [  0.3333333325000000,  0.6666666675000000,  0.0726905400000000 ]
  mass: 79.904000
- symbol: Br # 107
  position: [  0.5833333325000000,  0.6666666675000000,  0.0726905400000000 ]
  mass: 79.904000
- symbol: Br # 108
  position: [  0.8333333325000000,  0.6666666675000000,  0.0726905400000000 ]
  mass: 79.904000
- symbol: Br # 109
  position: [  0.0833333325000000,  0.9166666675000000,  0.0726905400000000 ]
  mass: 79.904000
- symbol: Br # 110
  position: [  0.3333333325000000,  0.9166666675000000,  0.0726905400000000 ]
  mass: 79.904000
- symbol: Br # 111
  position: [  0.5833333325000000,  0.9166666675000000,  0.0726905400000000 ]
  mass: 79.904000
- symbol: Br # 112
  position: [  0.8333333325000000,  0.9166666675000000,  0.0726905400000000 ]
  mass: 79.904000
- symbol: Br # 113
  position: [  0.0833333325000000,  0.1666666675000000,  0.4060238733333333 ]
  mass: 79.904000
- symbol: Br # 114
  position: [  0.3333333325000000,  0.1666666675000000,  0.4060238733333333 ]
  mass: 79.904000
- symbol: Br # 115
  position: [  0.5833333325000000,  0.1666666675000000,  0.4060238733333333 ]
  mass: 79.904000
- symbol: Br # 116
  position: [  0.8333333325000000,  0.1666666675000000,  0.4060238733333333 ]
  mass: 79.904000
- symbol: Br # 117
  position: [  0.0833333325000000,  0.4166666675000000,  0.4060238733333333 ]
  mass: 79.904000
- symbol: Br # 118
  position: [  0.3333333325000000,  0.4166666675000000,  0.4060238733333333 ]
  mass: 79.904000
- symbol: Br # 119
  position: [  0.5833333325000000,  0.4166666675000000,  0.4060238733333333 ]
  mass: 79.904000
- symbol: Br # 120
  position: [  0.8333333325000000,  0.4166666675000000,  0.4060238733333333 ]
  mass: 79.904000
- symbol: Br # 121
  position: [  0.0833333325000000,  0.6666666675000000,  0.4060238733333333 ]
  mass: 79.904000
- symbol: Br # 122
  position: [  0.3333333325000000,  0.6666666675000000,  0.4060238733333333 ]
  mass: 79.904000
- symbol: Br # 123
  position: [  0.5833333325000000,  0.6666666675000000,  0.4060238733333333 ]
  mass: 79.904000
- symbol: Br # 124
  position: [  0.8333333325000000,  0.6666666675000000,  0.4060238733333333 ]
  mass: 79.904000
- symbol: Br # 125
  position: [  0.0833333325000000,  0.9166666675000000,  0.4060238733333333 ]
  mass: 79.904000
- symbol: Br # 126
  position: [  0.3333333325000000,  0.9166666675000000,  0.4060238733333333 ]
  mass: 79.904000
- symbol: Br # 127
  position: [  0.5833333325000000,  0.9166666675000000,  0.4060238733333333 ]
  mass: 79.904000
- symbol: Br # 128
  position: [  0.8333333325000000,  0.9166666675000000,  0.4060238733333333 ]
  mass: 79.904000
- symbol: Br # 129
  position: [  0.0833333325000000,  0.1666666675000000,  0.7393572066666666 ]
  mass: 79.904000
- symbol: Br # 130
  position: [  0.3333333325000000,  0.1666666675000000,  0.7393572066666666 ]
  mass: 79.904000
- symbol: Br # 131
  position: [  0.5833333325000000,  0.1666666675000000,  0.7393572066666666 ]
  mass: 79.904000
- symbol: Br # 132
  position: [  0.8333333325000000,  0.1666666675000000,  0.7393572066666666 ]
  mass: 79.904000
- symbol: Br # 133
  position: [  0.0833333325000000,  0.4166666675000000,  0.7393572066666666 ]
  mass: 79.904000
- symbol: Br # 134
  position: [  0.3333333325000000,  0.4166666675000000,  0.7393572066666666 ]
  mass: 79.904000
- symbol: Br # 135
  position: [  0.5833333325000000,  0.4166666675000000,  0.7393572066666666 ]
  mass: 79.904000
- symbol: Br # 136
  position: [  0.8333333325000000,  0.4166666675000000,  0.7393572066666666 ]
  mass: 79.904000
- symbol: Br # 137
  position: [  0.0833333325000000,  0.6666666675000000,  0.7393572066666666 ]
  mass: 79.904000
- symbol: Br # 138
  position: [  0.3333333325000000,  0.6666666675000000,  0.7393572066666666 ]
  mass: 79.904000
- symbol: Br # 139
  position: [  0.5833333325000000,  0.6666666675000000,  0.7393572066666666 ]
  mass: 79.904000
- symbol: Br # 140
  position: [  0.8333333325000000,  0.6666666675000000,  0.7393572066666666 ]
  mass: 79.904000
- symbol: Br # 141
  position: [  0.0833333325000000,  0.9166666675000000,  0.7393572066666666 ]
  mass: 79.904000
- symbol: Br # 142
  position: [  0.3333333325000000,  0.9166666675000000,  0.7393572066666666 ]
  mass: 79.904000
- symbol: Br # 143
  position: [  0.5833333325000000,  0.9166666675000000,  0.7393572066666666 ]
  mass: 79.904000
- symbol: Br # 144
  position: [  0.8333333325000000,  0.9166666675000000,  0.7393572066666666 ]
  mass: 79.904000