144  
5    

1    
  0.0100000000000000   0.0000000000000000   0.0000000000000000
  -0.1311014600    0.0000000000    0.0000000000
   0.0066297200    0.0000000000    0.0000000000
   0.0008950500    0.0000000000    0.0000000000
   0.0065817800    0.0000000000    0.0000000000
   0.0026783100   -0.0023159000    0.0048222100
   0.0027152500    0.0022008200   -0.0050208400
  -0.0000522500   -0.0002798100   -0.0004581800
  -0.0000602200    0.0002737800    0.0004411800
   0.0003945700   -0.0002883900    0.0001337900
   0.0004207500   -0.0000051800   -0.0000095200
   0.0003945700    0.0002883900   -0.0001337900
   0.0004207500    0.0000051800    0.0000095200
   0.0027152500   -0.0022008200    0.0050208400
  -0.0000522500    0.0002798100    0.0004581800
  -0.0000602200   -0.0002737800   -0.0004411800
   0.0026783100    0.0023159000   -0.0048222100
  -0.0001093900   -0.0000001400    0.0001247400
   0.0000836400    0.0000856600    0.0001830900
   0.0000208500    0.0000007800    0.0001248100
   0.0000813400   -0.0000846300    0.0000669100
   0.0000015100   -0.0001342600    0.0001257100
   0.0000008700    0.0001326500    0.0001245500
  -0.0000212200    0.0000150100    0.0001545300
  -0.0000218500   -0.0000163800    0.0000950300
  -0.0000214800   -0.0000252600    0.0000804100
   0.0002052300   -0.0000015000    0.0001237900
  -0.0000198100    0.0000217800    0.0001695600
  -0.0000484100   -0.0000012000    0.0001248800
  -0.0001483600   -0.0000467600    0.0001840000
   0.0002243200   -0.0000108900    0.0000444200
   0.0002242400    0.0000107400    0.0002056800
  -0.0001460900    0.0000456300    0.0000667300
  -0.0001093900    0.0000001400   -0.0001247400
   0.0000836400   -0.0000856600   -0.0001830900
   0.0000208500   -0.0000007800   -0.0001248100
   0.0000813400    0.0000846300   -0.0000669100
  -0.0001460900   -0.0000456300   -0.0000667300
  -0.0001483600    0.0000467600   -0.0001840000
   0.0002243200    0.0000108900   -0.0000444200
   0.0002242400   -0.0000107400   -0.0002056800
  -0.0000198100   -0.0000217800   -0.0001695600
  -0.0000484100    0.0000012000   -0.0001248800
  -0.0000214800    0.0000252600   -0.0000804100
   0.0002052300    0.0000015000   -0.0001237900
   0.0000008700   -0.0001326500   -0.0001245500
  -0.0000212200   -0.0000150100   -0.0001545300
  -0.0000218500    0.0000163800   -0.0000950300
   0.0000015100    0.0001342600   -0.0001257100
  -0.0000217700   -0.0000360800    0.0009059100
   0.0000087500    0.0000006800    0.0009638500
   0.0000107200    0.0000017600    0.0010027500
  -0.0000222000    0.0000369300    0.0010524100
  -0.0000550100   -0.0000013400    0.0009828600
   0.0000103700    0.0000124700    0.0009704600
  -0.0000023500    0.0000007800    0.0009846000
   0.0000098500   -0.0000133700    0.0009955500
  -0.0000415400    0.0000020900    0.0009664300
  -0.0000402400   -0.0000004900    0.0009970500
   0.0000007500   -0.0000065300    0.0009907900
  -0.0000026400    0.0000079000    0.0009757400
  -0.0001612600    0.0000630200    0.0008402300
  -0.0000434800    0.0000024200    0.0009809200
  -0.0001590200   -0.0000582100    0.0011210400
   0.0000418300    0.0000010500    0.0009793000
   0.0000186000    0.0000068900    0.0009106100
  -0.0000216300    0.0000073400    0.0009515400
  -0.0000201000   -0.0000101000    0.0009328900
   0.0000170400   -0.0000056500    0.0009722100
   0.0000309500    0.0000034200    0.0009434000
   0.0000157900    0.0000058300    0.0009108000
  -0.0001623300    0.0000020900    0.0009400400
   0.0000176000   -0.0000025200    0.0009720300
   0.0000107100    0.0000013600    0.0009600500
   0.0000071700    0.0000011800    0.0009258600
  -0.0000132600   -0.0000290500    0.0009032500
  -0.0000135800    0.0000317500    0.0009824100
  -0.0000159800    0.0000283300    0.0009839600
   0.0000084500   -0.0000007000    0.0009425200
  -0.0000206400   -0.0000283700    0.0009006200
   0.0000074300   -0.0000005200    0.0009411600
   0.0227119900    0.0084667500   -0.0030182500
   0.0007815000    0.0008457900    0.0002094800
   0.0007576600   -0.0008305400    0.0017199500
   0.0216203600   -0.0078288000    0.0042926100
   0.0004754100    0.0000050300    0.0009716500
  -0.0004429700   -0.0003412700    0.0014770600
   0.0001289600    0.0000013600    0.0009692800
  -0.0004164000    0.0003451300    0.0005009700
  -0.0000455000    0.0000129300    0.0010002900
  -0.0000424200   -0.0000110100    0.0009404000
  -0.0002559100    0.0016089700    0.0021900000
  -0.0002611400   -0.0016514800   -0.0002974500
  -0.0001526400    0.0003666600    0.0007774700
  -0.0000647800    0.0000016200    0.0009667000
  -0.0001509100   -0.0003593200    0.0011606300
   0.0080534600   -0.0000138500    0.0008555000
   0.0080534600    0.0000138500   -0.0008555000
  -0.0001526400   -0.0003666600   -0.0007774700
  -0.0000647800   -0.0000016200   -0.0009667000
  -0.0001509100    0.0003593200   -0.0011606300
  -0.0002559100   -0.0016089700   -0.0021900000
  -0.0002611400    0.0016514800    0.0002974500
  -0.0000455000   -0.0000129300   -0.0010002900
  -0.0000424200    0.0000110100   -0.0009404000
  -0.0004429700    0.0003412700   -0.0014770600
   0.0001289600   -0.0000013600   -0.0009692800
  -0.0004164000   -0.0003451300   -0.0005009700
   0.0004754100   -0.0000050300   -0.0009716500
   0.0227119900   -0.0084667500    0.0030182500
   0.0007815000   -0.0008457900   -0.0002094800
   0.0007576600    0.0008305400   -0.0017199500
   0.0216203600    0.0078288000   -0.0042926100
   0.0000074300    0.0000005200   -0.0009411600
  -0.0000159800   -0.0000283300   -0.0009839600
   0.0000084500    0.0000007000   -0.0009425200
  -0.0000206400    0.0000283700   -0.0009006200
  -0.0000132600    0.0000290500   -0.0009032500
  -0.0000135800   -0.0000317500   -0.0009824100
   0.0000107100   -0.0000013600   -0.0009600500
   0.0000071700   -0.0000011800   -0.0009258600
   0.0000157900   -0.0000058300   -0.0009108000
  -0.0001623300   -0.0000020900   -0.0009400400
   0.0000176000    0.0000025200   -0.0009720300
   0.0000309500   -0.0000034200   -0.0009434000
   0.0000186000   -0.0000068900   -0.0009106100
  -0.0000216300   -0.0000073400   -0.0009515400
  -0.0000201000    0.0000101000   -0.0009328900
   0.0000170400    0.0000056500   -0.0009722100
   0.0000418300   -0.0000010500   -0.0009793000
  -0.0001612600   -0.0000630200   -0.0008402300
  -0.0000434800   -0.0000024200   -0.0009809200
  -0.0001590200    0.0000582100   -0.0011210400
   0.0000007500    0.0000065300   -0.0009907900
  -0.0000026400   -0.0000079000   -0.0009757400
  -0.0000415400   -0.0000020900   -0.0009664300
  -0.0000402400    0.0000004900   -0.0009970500
   0.0000103700   -0.0000124700   -0.0009704600
  -0.0000023500   -0.0000007800   -0.0009846000
   0.0000098500    0.0000133700   -0.0009955500
  -0.0000550100    0.0000013400   -0.0009828600
  -0.0000217700    0.0000360800   -0.0009059100
   0.0000087500   -0.0000006800   -0.0009638500
   0.0000107200   -0.0000017600   -0.0010027500
  -0.0000222000   -0.0000369300   -0.0010524100

1    
  0.0000000000000000   0.0000000000000000   0.0100000000000000
   0.0000000000    0.0000000000   -0.0879160500
  -0.0001129700   -0.0056813500    0.0050463500
   0.0000000000   -0.0001531600    0.0003764500
   0.0001129700   -0.0056813500    0.0050463500
   0.0049766800    0.0027428400    0.0050463500
  -0.0049766800    0.0027428400    0.0050463500
  -0.0004426900   -0.0002555900    0.0003778200
   0.0004426900   -0.0002555900    0.0003778200
   0.0001326400    0.0000765800    0.0003764500
   0.0000000000    0.0005257700    0.0003641800
  -0.0001326400    0.0000765800    0.0003764500
   0.0000000000    0.0005111800    0.0003778200
   0.0048637100    0.0029385100    0.0050463500
   0.0004553300   -0.0002628800    0.0003641800
  -0.0004553300   -0.0002628800    0.0003641800
  -0.0048637100    0.0029385100    0.0050463500
   0.0000000000    0.0000000000    0.0000483200
   0.0000589300   -0.0000346400    0.0001413300
   0.0000000000    0.0000497800    0.0002020300
  -0.0000589300   -0.0000346400    0.0001413300
   0.0000005400    0.0000683600    0.0001413300
  -0.0000005400    0.0000683600    0.0001413300
   0.0000287500    0.0000166000    0.0001860400
  -0.0000287500    0.0000166000    0.0001860400
  -0.0000431100   -0.0000248900    0.0002020300
   0.0000000000   -0.0000912600    0.0002172900
   0.0000431100   -0.0000248900    0.0002020300
   0.0000000000   -0.0000331900    0.0001860400
   0.0000594700   -0.0000337100    0.0001413300
  -0.0000790400    0.0000456300    0.0002172900
   0.0000790400    0.0000456300    0.0002172900
  -0.0000594700   -0.0000337100    0.0001413300
   0.0000000000    0.0000000000   -0.0001628300
  -0.0000567300   -0.0000341400   -0.0001101300
   0.0000000000    0.0000518300   -0.0000495600
   0.0000567300   -0.0000341400   -0.0001101300
   0.0000579300   -0.0000320500   -0.0001101300
  -0.0000579300   -0.0000320500   -0.0001101300
   0.0000833900    0.0000481500   -0.0000340300
  -0.0000833900    0.0000481500   -0.0000340300
  -0.0000448800   -0.0000259100   -0.0000495600
   0.0000000000   -0.0000333900   -0.0000649500
   0.0000448800   -0.0000259100   -0.0000495600
   0.0000000000   -0.0000962900   -0.0000340300
   0.0000012100    0.0000662000   -0.0001101300
  -0.0000289200    0.0000167000   -0.0000649500
   0.0000289200    0.0000167000   -0.0000649500
  -0.0000012100    0.0000662000   -0.0001101300
  -0.0000486700   -0.0000281000    0.0008279800
   0.0000014400   -0.0000086700    0.0009639200
  -0.0000014400   -0.0000086700    0.0009639200
   0.0000486700   -0.0000281000    0.0008279800
   0.0000000000    0.0000534500    0.0009305300
  -0.0000067900    0.0000055800    0.0009639200
   0.0000000000    0.0000000000    0.0009746600
   0.0000067900    0.0000055800    0.0009639200
  -0.0000125000   -0.0000072200    0.0009392600
   0.0000125000   -0.0000072200    0.0009392600
  -0.0000082300    0.0000030900    0.0009639200
   0.0000082300    0.0000030900    0.0009639200
   0.0000462900   -0.0000267300    0.0009305300
   0.0000000000    0.0000144300    0.0009392600
  -0.0000462900   -0.0000267300    0.0009305300
   0.0000000000    0.0000561900    0.0008279800
   0.0000111500    0.0000064400    0.0009436000
   0.0000081400   -0.0000150200    0.0009140700
  -0.0000081400   -0.0000150200    0.0009140700
  -0.0000111500    0.0000064400    0.0009436000
   0.0000000000    0.0000214900    0.0009119900
  -0.0000089400    0.0000145600    0.0009140700
   0.0000000000    0.0000000000    0.0009507700
   0.0000089400    0.0000145600    0.0009140700
   0.0000071500    0.0000041300    0.0009060800
  -0.0000071500    0.0000041300    0.0009060800
  -0.0000170800    0.0000004600    0.0009140700
   0.0000170800    0.0000004600    0.0009140700
   0.0000186100   -0.0000107500    0.0009119900
   0.0000000000   -0.0000082500    0.0009060800
  -0.0000186100   -0.0000107500    0.0009119900
   0.0000000000   -0.0000128800    0.0009436000
  -0.0105139800   -0.0060702500    0.0121654300
   0.0014849200    0.0011187600   -0.0003226900
  -0.0014849200    0.0011187600   -0.0003226900
   0.0105139800   -0.0060702500    0.0121654300
   0.0000000000   -0.0004313200    0.0012775000
   0.0017113400    0.0007266000   -0.0003226900
   0.0000000000    0.0000000000    0.0008962300
  -0.0017113400    0.0007266000   -0.0003226900
  -0.0000088000   -0.0000050800    0.0009892500
   0.0000088000   -0.0000050800    0.0009892500
   0.0002264100   -0.0018453600   -0.0003226900
  -0.0002264100   -0.0018453600   -0.0003226900
  -0.0003735300    0.0002156600    0.0012775000
   0.0000000000    0.0000101600    0.0009892500
   0.0003735300    0.0002156600    0.0012775000
   0.0000000000    0.0121405000    0.0121654300
   0.0000000000    0.0127599600    0.0108159300
   0.0003713400    0.0002144000   -0.0006646300
   0.0000000000    0.0000135400   -0.0009518500
  -0.0003713400    0.0002144000   -0.0006646300
  -0.0002401800   -0.0018177400   -0.0022498000
   0.0002401800   -0.0018177400   -0.0022498000
   0.0000117200   -0.0000067700   -0.0009518500
  -0.0000117200   -0.0000067700   -0.0009518500
  -0.0016943000    0.0007008700   -0.0022498000
   0.0000000000    0.0000000000   -0.0010482700
   0.0016943000    0.0007008700   -0.0022498000
   0.0000000000   -0.0004287900   -0.0006646300
   0.0110504500   -0.0063799800    0.0108159300
  -0.0014541200    0.0011168700   -0.0022498000
   0.0014541200    0.0011168700   -0.0022498000
  -0.0110504500   -0.0063799800    0.0108159300
   0.0000000000   -0.0000096400   -0.0009413700
  -0.0000188700   -0.0000109000   -0.0009757900
   0.0000000000   -0.0000051300   -0.0009810700
   0.0000188700   -0.0000109000   -0.0009757900
   0.0000170500   -0.0000043000   -0.0009719800
  -0.0000170500   -0.0000043000   -0.0009719800
  -0.0000044500    0.0000025700   -0.0009810700
   0.0000044500    0.0000025700   -0.0009810700
   0.0000048000    0.0000169200   -0.0009719800
   0.0000000000    0.0000000000   -0.0009273600
  -0.0000048000    0.0000169200   -0.0009719800
   0.0000000000    0.0000217900   -0.0009757900
  -0.0000083500    0.0000048200   -0.0009413700
  -0.0000122500   -0.0000126200   -0.0009719800
   0.0000122500   -0.0000126200   -0.0009719800
   0.0000083500    0.0000048200   -0.0009413700
   0.0000000000    0.0000575200   -0.0011336400
  -0.0000522100   -0.0000301400   -0.0010359100
   0.0000000000    0.0000136900   -0.0010229100
   0.0000522100   -0.0000301400   -0.0010359100
   0.0000118100    0.0000021000   -0.0010026100
  -0.0000118100    0.0000021000   -0.0010026100
   0.0000118500   -0.0000068400   -0.0010229100
  -0.0000118500   -0.0000068400   -0.0010229100
   0.0000077200    0.0000091800   -0.0010026100
   0.0000000000    0.0000000000   -0.0009932300
  -0.0000077200    0.0000091800   -0.0010026100
   0.0000000000    0.0000602800   -0.0010359100
   0.0000498100   -0.0000287600   -0.0011336400
  -0.0000040900   -0.0000112800   -0.0010026100
   0.0000040900   -0.0000112800   -0.0010026100
  -0.0000498100   -0.0000287600   -0.0011336400

49   
  0.0100000000000000   0.0000000000000000   0.0000000000000000
  -0.0000234000   -0.0000354500   -0.0000502200
  -0.0000233700    0.0000367000    0.0000499200
   0.0000111200   -0.0000115400   -0.0000016600
   0.0000107300    0.0000108000    0.0000026700
  -0.0001565700    0.0000592600    0.0000474900
   0.0000398200    0.0000007400   -0.0000014400
  -0.0001609500   -0.0000594200   -0.0000481900
  -0.0000441700   -0.0000007400    0.0000012000
  -0.0000413600    0.0000017300   -0.0000118200
   0.0000021500   -0.0000076600    0.0000102100
  -0.0000003500    0.0000070700   -0.0000092200
  -0.0000437300   -0.0000005700    0.0000135900
  -0.0000557000    0.0000008100    0.0000005900
   0.0000096000    0.0000000300    0.0000081200
   0.0000016800   -0.0000006900    0.0000002800
   0.0000084500   -0.0000005300   -0.0000068500
   0.0216436600    0.0079110900   -0.0102841600
   0.0226902500   -0.0083839000    0.0112783400
   0.0007708500    0.0010297900   -0.0013376400
   0.0007706700   -0.0010440900    0.0016031500
  -0.0001546400    0.0003647100   -0.0002479500
   0.0080567600   -0.0000366100    0.0001532400
  -0.0001481200   -0.0003603200    0.0004980400
  -0.0000638500    0.0000012000    0.0001271400
  -0.0000427400    0.0000111500    0.0001160000
  -0.0002564800    0.0002399000   -0.0001091800
  -0.0002589900   -0.0002499400    0.0003588500
  -0.0000437500   -0.0000129000    0.0001369800
   0.0004758700   -0.0000108200    0.0001262600
  -0.0004310200   -0.0015198600   -0.0015737400
   0.0001310400   -0.0000020600    0.0001276700
  -0.0004271000    0.0015431800    0.0018353000
   0.0000153100    0.0000059700   -0.0001157300
   0.0000146600   -0.0000043900   -0.0001365500
  -0.0000188800   -0.0000273600   -0.0001361900
  -0.0000198100    0.0000282100   -0.0001158000
  -0.0000203100    0.0000280100   -0.0001063000
   0.0000059900    0.0000010100   -0.0001260600
  -0.0000193600   -0.0000251200   -0.0001447000
   0.0000085600    0.0000014500   -0.0001256700
   0.0000068900   -0.0000001100   -0.0001194600
  -0.0000132300    0.0000128000   -0.0001084700
  -0.0000145300   -0.0000121200   -0.0001430600
   0.0000086400    0.0000006400   -0.0001317600
   0.0000262000   -0.0000005000   -0.0001256700
   0.0000178200    0.0000121100   -0.0001187000
  -0.0001626700   -0.0000005900   -0.0001258400
   0.0000176000   -0.0000124500   -0.0001330500
  -0.0734850900    0.0004816000    0.0001631800
   0.0051968300   -0.0001924300    0.0016031100
   0.0001926100   -0.0000005200    0.0009796900
   0.0050577900    0.0001969900    0.0003816300
   0.0010006900   -0.0025690600    0.0008150700
   0.0009897500    0.0025943200    0.0011675800
  -0.0000511800    0.0000135800    0.0010366800
  -0.0000434400   -0.0000073300    0.0009323200
   0.0002404200    0.0000291500    0.0012347900
  -0.0000619900   -0.0000017800    0.0009861900
   0.0002461600   -0.0000283300    0.0007353100
  -0.0000652600    0.0000026300    0.0009876200
   0.0009838800   -0.0022000500    0.0014085900
  -0.0000471600   -0.0000076300    0.0010912700
  -0.0000434300    0.0000105700    0.0008773600
   0.0010029700    0.0021794000    0.0005393500
  -0.0000038300    0.0000042900    0.0009407100
   0.0000024000    0.0000355300    0.0009651900
  -0.0000108400    0.0000028200    0.0009434700
  -0.0000001800   -0.0000297000    0.0009183200
   0.0000031500    0.0000173500    0.0009377500
   0.0000018900   -0.0000175800    0.0009521300
   0.0000001900   -0.0000014700    0.0009498200
  -0.0000005900    0.0000021600    0.0009405200
  -0.0000077600    0.0000007200    0.0009415200
   0.0000368400    0.0000005900    0.0009432800
  -0.0000067400    0.0000008400    0.0009464600
   0.0000021000    0.0000008000    0.0009440300
  -0.0000124000   -0.0000244200    0.0009560700
   0.0000957200   -0.0000326300    0.0009894200
   0.0000965400    0.0000326500    0.0008965000
  -0.0000128700    0.0000207000    0.0009281300
   0.0000020300    0.0000011600    0.0009757600
  -0.0000022700    0.0000204300    0.0009783900
  -0.0000104900    0.0000006900    0.0009728500
  -0.0000017700   -0.0000149200    0.0009718000
  -0.0000101200    0.0000258300    0.0009343300
  -0.0000080000   -0.0000234600    0.0010169900
   0.0000914000    0.0000353700    0.0009066100
   0.0000937200   -0.0000345700    0.0010404800
  -0.0000058700    0.0000014600    0.0009590300
   0.0000079500    0.0000015000    0.0009770000
  -0.0000088100   -0.0000003900    0.0009888700
   0.0000312400    0.0000014000    0.0009729600
  -0.0000006200   -0.0000263300    0.0009353300
   0.0000038500    0.0000028000    0.0009740200
   0.0000006800   -0.0000047300    0.0009756500
   0.0000009200    0.0000267300    0.0010134500
   0.0004687200   -0.0003065900   -0.0002971700
   0.0004732600    0.0003102500   -0.0016653800
   0.0000422000    0.0000031600   -0.0009692200
   0.0000459400   -0.0000033400   -0.0009792000
   0.0000236000   -0.0000185600   -0.0009646100
  -0.0000013300    0.0000003300   -0.0009754800
   0.0000216100    0.0000154000   -0.0009849800
  -0.0000029800   -0.0000004900   -0.0009732100
   0.0000154300   -0.0000126200   -0.0009574400
   0.0000087800   -0.0000001700   -0.0009711300
   0.0000049000   -0.0000016200   -0.0009803600
   0.0000158500    0.0000123900   -0.0009902300
  -0.0000641700    0.0000005000   -0.0009734800
  -0.0000007600   -0.0000009100   -0.0009730900
   0.0000050200   -0.0000030500   -0.0009741200
   0.0000005900   -0.0000012400   -0.0009737400
   0.0042341000   -0.0042796000   -0.0080372100
   0.0042379200    0.0042916900    0.0061976200
   0.0000198300   -0.0000359100   -0.0009837500
   0.0000274200    0.0000311800   -0.0008987000
   0.0000473600    0.0000456700   -0.0009371900
  -0.0016708200    0.0000103600   -0.0009471900
   0.0000459900   -0.0000473600   -0.0009559700
   0.0000202500    0.0000033600   -0.0009435800
   0.0001029800    0.0000120800   -0.0009785700
  -0.0001876300    0.0003478200   -0.0008849700
  -0.0001846700   -0.0003544900   -0.0010038700
   0.0001050600   -0.0000145200   -0.0009120400
  -0.0031868200    0.0000353500   -0.0009830200
   0.0012513300   -0.0017037900    0.0035596000
  -0.0007951900    0.0000056900   -0.0009480000
   0.0012267600    0.0016554400   -0.0054104700
  -0.0000016900   -0.0000032400   -0.0009907200
  -0.0000022100    0.0000092800   -0.0009781100
   0.0000066400    0.0000161800   -0.0009772700
   0.0000045700   -0.0000133300   -0.0009937200
   0.0000138800   -0.0000114300   -0.0010038900
  -0.0000027500   -0.0000022300   -0.0009862100
   0.0000146500    0.0000088700   -0.0009679900
  -0.0000080100   -0.0000018300   -0.0009863400
  -0.0000131300    0.0000025600   -0.0009936800
   0.0000257800    0.0000018500   -0.0009913600
   0.0000265500   -0.0000037200   -0.0009779200
  -0.0000132000   -0.0000050900   -0.0009780200
  -0.0000135000   -0.0000035800   -0.0009816800
   0.0000079100   -0.0000057600   -0.0009822400
   0.0000181900   -0.0000010900   -0.0009831000
   0.0000055900    0.0000007600   -0.0009841200

49   
  0.0000000000000000   0.0000000000000000   0.0100000000000000
  -0.0000683500   -0.0000394600   -0.0001545000
   0.0000683500   -0.0000394600   -0.0001545000
   0.0000175700   -0.0000027000   -0.0000243400
  -0.0000175700   -0.0000027000   -0.0000243400
  -0.0001343200    0.0000775500   -0.0000568200
   0.0000000000    0.0000789200   -0.0001545000
   0.0001343200    0.0000775500   -0.0000568200
   0.0000000000    0.0000140000   -0.0000443900
  -0.0000121300   -0.0000070000   -0.0000443900
  -0.0000064500    0.0000165600   -0.0000243400
   0.0000064500    0.0000165600   -0.0000243400
   0.0000121300   -0.0000070000   -0.0000443900
   0.0000000000   -0.0001551000   -0.0000568200
   0.0000111200   -0.0000138700   -0.0000243400
   0.0000000000    0.0000000000   -0.0000157500
  -0.0000111200   -0.0000138700   -0.0000243400
  -0.0037788700   -0.0021817300    0.0119125500
   0.0037788700   -0.0021817300    0.0119125500
   0.0007501500    0.0009955600   -0.0011643100
  -0.0007501500    0.0009955600   -0.0011643100
  -0.0001950200    0.0001126000    0.0004287500
   0.0000000000    0.0043634700    0.0119125500
   0.0001950200    0.0001126000    0.0004287500
   0.0000000000   -0.0000327800    0.0001367600
   0.0000283900    0.0000163900    0.0001367600
  -0.0012372500    0.0001518700   -0.0011643100
   0.0012372500    0.0001518700   -0.0011643100
  -0.0000283900    0.0000163900    0.0001367600
   0.0000000000   -0.0002251900    0.0004287500
  -0.0004871000   -0.0011474200   -0.0011643100
   0.0000000000    0.0000000000    0.0000447500
   0.0004871000   -0.0011474200   -0.0011643100
  -0.0000322000   -0.0000185900   -0.0001288100
   0.0000322000   -0.0000185900   -0.0001288100
  -0.0000078600   -0.0000387600   -0.0001567800
   0.0000078600   -0.0000387600   -0.0001567800
   0.0000398000   -0.0000229800   -0.0001605500
   0.0000000000    0.0000371800   -0.0001288100
  -0.0000398000   -0.0000229800   -0.0001605500
   0.0000000000   -0.0000171800   -0.0001651200
   0.0000148700    0.0000085900   -0.0001651200
   0.0000374900    0.0000125700   -0.0001567800
  -0.0000374900    0.0000125700   -0.0001567800
  -0.0000148700    0.0000085900   -0.0001651200
   0.0000000000    0.0000459600   -0.0001605500
   0.0000296400    0.0000261800   -0.0001567800
   0.0000000000    0.0000000000   -0.0001157100
  -0.0000296400    0.0000261800   -0.0001567800
   0.0000000000    0.0000000000   -0.0660123900
  -0.0006171700   -0.0001454800    0.0005464800
   0.0000000000   -0.0002897700    0.0013132900
   0.0006171700   -0.0001454800    0.0005464800
   0.0004345800   -0.0004617500    0.0005464800
  -0.0004345800   -0.0004617500    0.0005464800
  -0.0001050400   -0.0000606500    0.0010651200
   0.0001050400   -0.0000606500    0.0010651200
   0.0002509500    0.0001448800    0.0013132900
   0.0000000000   -0.0000585900    0.0010675900
  -0.0002509500    0.0001448800    0.0013132900
   0.0000000000    0.0001212900    0.0010651200
  -0.0001825900    0.0006072300    0.0005464800
  -0.0000507400    0.0000292900    0.0010675900
   0.0000507400    0.0000292900    0.0010675900
   0.0001825900    0.0006072300    0.0005464800
   0.0000000000    0.0000000000    0.0009316300
  -0.0000064200    0.0000435600    0.0009688200
   0.0000000000    0.0000143700    0.0009578100
   0.0000064200    0.0000435600    0.0009688200
  -0.0000345100   -0.0000273400    0.0009688200
   0.0000345100   -0.0000273400    0.0009688200
  -0.0000019200   -0.0000011100    0.0009516500
   0.0000019200   -0.0000011100    0.0009516500
  -0.0000124400   -0.0000071800    0.0009578100
   0.0000000000    0.0000789400    0.0010243700
   0.0000124400   -0.0000071800    0.0009578100
   0.0000000000    0.0000022200    0.0009516500
  -0.0000409400   -0.0000162200    0.0009688200
   0.0000683700   -0.0000394700    0.0010243700
  -0.0000683700   -0.0000394700    0.0010243700
   0.0000409400   -0.0000162200    0.0009688200
   0.0000000000    0.0000000000    0.0009585600
  -0.0000285700   -0.0000026500    0.0009962900
   0.0000000000    0.0000005000    0.0009853900
   0.0000285700   -0.0000026500    0.0009962900
   0.0000165800   -0.0000234200    0.0009962900
  -0.0000165800   -0.0000234200    0.0009962900
  -0.0000507500   -0.0000293000    0.0010522100
   0.0000507500   -0.0000293000    0.0010522100
  -0.0000004300   -0.0000002500    0.0009853900
   0.0000000000   -0.0000093400    0.0009745600
   0.0000004300   -0.0000002500    0.0009853900
   0.0000000000    0.0000586000    0.0010522100
  -0.0000119900    0.0000260700    0.0009962900
  -0.0000080900    0.0000046700    0.0009745600
   0.0000080900    0.0000046700    0.0009745600
   0.0000119900    0.0000260700    0.0009962900
   0.0006733000   -0.0003887300   -0.0001074900
  -0.0006733000   -0.0003887300   -0.0001074900
   0.0000015800   -0.0000077300   -0.0009553600
  -0.0000015800   -0.0000077300   -0.0009553600
   0.0000059100    0.0000052400   -0.0009553600
   0.0000000000   -0.0000075600   -0.0009664800
  -0.0000059100    0.0000052400   -0.0009553600
   0.0000000000    0.0000000000   -0.0009551300
   0.0000074900    0.0000025000   -0.0009553600
  -0.0000034800   -0.0000020100   -0.0009542400
   0.0000034800   -0.0000020100   -0.0009542400
  -0.0000074900    0.0000025000   -0.0009553600
   0.0000000000    0.0007774600   -0.0001074900
  -0.0000065500    0.0000037800   -0.0009664800
   0.0000000000    0.0000040200   -0.0009542400
   0.0000065500    0.0000037800   -0.0009664800
  -0.0071870800    0.0041494600    0.0087556800
   0.0071870800    0.0041494600    0.0087556800
  -0.0000378900    0.0000136600   -0.0010595300
   0.0000378900    0.0000136600   -0.0010595300
   0.0000071100   -0.0000396400   -0.0010595300
   0.0000000000    0.0051985800    0.0018506100
  -0.0000071100   -0.0000396400   -0.0010595300
   0.0000000000    0.0000000000   -0.0008890500
  -0.0000307700    0.0000259800   -0.0010595300
   0.0000585800    0.0000338200   -0.0008547900
  -0.0000585800    0.0000338200   -0.0008547900
   0.0000307700    0.0000259800   -0.0010595300
   0.0000000000   -0.0082989200    0.0087556800
   0.0045021100   -0.0025992900    0.0018506100
   0.0000000000   -0.0000676400   -0.0008547900
  -0.0045021100   -0.0025992900    0.0018506100
  -0.0000025700    0.0000014800   -0.0009734700
   0.0000025700    0.0000014800   -0.0009734700
   0.0000083600    0.0000163900   -0.0009571100
  -0.0000083600    0.0000163900   -0.0009571100
  -0.0000183800   -0.0000009600   -0.0009571100
   0.0000000000   -0.0000074500   -0.0009913800
   0.0000183800   -0.0000009600   -0.0009571100
   0.0000000000    0.0000000000   -0.0009571000
  -0.0000100200   -0.0000154400   -0.0009571100
  -0.0000067700   -0.0000039100   -0.0009698900
   0.0000067700   -0.0000039100   -0.0009698900
   0.0000100200   -0.0000154400   -0.0009571100
   0.0000000000   -0.0000029700   -0.0009734700
  -0.0000064600    0.0000037300   -0.0009913800
   0.0000000000    0.0000078200   -0.0009698900
   0.0000064600    0.0000037300   -0.0009913800

49   
  0.0000000000000000   0.0000000000000000  -0.0100000000000000
   0.0000751500    0.0000433900    0.0001583300
  -0.0000751500    0.0000433900    0.0001583300
  -0.0000204800    0.0000034500    0.0000256100
   0.0000204800    0.0000034500    0.0000256100
   0.0001461700   -0.0000843900    0.0000581400
   0.0000000000   -0.0000867700    0.0001583300
  -0.0001461700   -0.0000843900    0.0000581400
   0.0000000000   -0.0000184900    0.0000487000
   0.0000160100    0.0000092400    0.0000487000
   0.0000072500   -0.0000194600    0.0000256100
  -0.0000072500   -0.0000194600    0.0000256100
  -0.0000160100    0.0000092400    0.0000487000
   0.0000000000    0.0001687800    0.0000581400
  -0.0000132300    0.0000160100    0.0000256100
   0.0000000000    0.0000000000    0.0000164400
   0.0000132300    0.0000160100    0.0000256100
   0.0035255600    0.0020354800   -0.0110604700
  -0.0035255600    0.0020354800   -0.0110604700
  -0.0007640600   -0.0009980600    0.0014174100
   0.0007640600   -0.0009980600    0.0014174100
   0.0001901100   -0.0001097600   -0.0001736300
   0.0000000000   -0.0040709700   -0.0110604700
  -0.0001901100   -0.0001097600   -0.0001736300
   0.0000000000    0.0000336600    0.0001120800
  -0.0000291500   -0.0000168300    0.0001120800
   0.0012463800   -0.0001626700    0.0014174100
  -0.0012463800   -0.0001626700    0.0014174100
   0.0000291500   -0.0000168300    0.0001120800
   0.0000000000    0.0002195200   -0.0001736300
   0.0004823200    0.0011607300    0.0014174100
   0.0000000000    0.0000000000    0.0002037600
  -0.0004823200    0.0011607300    0.0014174100
   0.0000313600    0.0000181100   -0.0001210600
  -0.0000313600    0.0000181100   -0.0001210600
   0.0000091200    0.0000399500   -0.0000924600
  -0.0000091200    0.0000399500   -0.0000924600
  -0.0000422900    0.0000244200   -0.0000888500
   0.0000000000   -0.0000362200   -0.0001210600
   0.0000422900    0.0000244200   -0.0000888500
   0.0000000000    0.0000183200   -0.0000845000
  -0.0000158700   -0.0000091600   -0.0000845000