# epsilon and Z* of atoms 1 5
   5.90567100    0.00000000    0.00000000    0.00000000    5.90567100    0.00000000    0.00000000    0.00000000    5.90567100 
   2.02529333    0.00000000    0.00000000    0.00000000    2.02529333    0.00000000    0.00000000    0.00000000    2.02529333 
  -2.02529333    0.00000000    0.00000000    0.00000000   -2.02529333    0.00000000    0.00000000    0.00000000   -2.02529333 
