phonopy:
  version: 1.13.2
  configuration:
    dim: "2 2 2"
    create_displacements: ".true."

supercell_matrix:
- [   2,   0,   0 ]
- [   0,   2,   0 ]
- [   0,   0,   2 ]

space_group:
  type: "F-43m"
  number: 216
  Hall_symbol: "F -4 2 3"

primitive_cell:
  lattice:
  - [     5.443156681089958,     0.000000000000000,     0.000000000000000 ] # a
  - [     0.000000000000000,     5.443156681089958,     0.000000000000000 ] # b
  - [     0.000000000000000,     0.000000000000000,     5.443156681089958 ] # c
  points:
  - symbol: Zn # 1
    coordinates: [  0.000000000000000,  0.000000000000000,  0.000000000000000 ]
    mass: 65.380000
  - symbol: Zn # 2
    coordinates: [  0.500000000000000,  0.500000000000000,  0.000000000000000 ]
    mass: 65.380000
  - symbol: Zn # 3
    coordinates: [  0.500000000000000,  0.000000000000000,  0.500000000000000 ]
    mass: 65.380000
  - symbol: Zn # 4
    coordinates: [  0.000000000000000,  0.500000000000000,  0.500000000000000 ]
    mass: 65.380000
  - symbol: S  # 5
    coordinates: [  0.250000000000000,  0.250000000000000,  0.250000000000000 ]
    mass: 32.065000
  - symbol: S  # 6
    coordinates: [  0.750000000000000,  0.750000000000000,  0.250000000000000 ]
    mass: 32.065000
  - symbol: S  # 7
    coordinates: [  0.750000000000000,  0.250000000000000,  0.750000000000000 ]
    mass: 32.065000
  - symbol: S  # 8
    coordinates: [  0.250000000000000,  0.750000000000000,  0.750000000000000 ]
    mass: 32.065000
  reciprocal_lattice: # without 2pi
  - [     0.183716923577470,     0.000000000000000,     0.000000000000000 ] # a*
  - [     0.000000000000000,     0.183716923577470,     0.000000000000000 ] # b*
  - [     0.000000000000000,     0.000000000000000,     0.183716923577470 ] # c*

unit_cell:
  lattice:
  - [     5.443156681089958,    -0.000000000000000,    -0.000000000000000 ] # a
  - [     0.000000000000000,     5.443156681089958,    -0.000000000000000 ] # b
  - [    -0.000000000000000,     0.000000000000000,     5.443156681089958 ] # c
  points:
  - symbol: Zn # 1
    coordinates: [ -0.000000000000000, -0.000000000000000,  0.000000000000000 ]
    mass: 65.380000
    reduced_to: 1
  - symbol: Zn # 2
    coordinates: [  0.500000000000000,  0.500000000000000,  0.000000000000000 ]
    mass: 65.380000
    reduced_to: 2
  - symbol: Zn # 3
    coordinates: [  0.500000000000000, -0.000000000000000,  0.500000000000000 ]
    mass: 65.380000
    reduced_to: 3
  - symbol: Zn # 4
    coordinates: [  0.000000000000000,  0.500000000000000,  0.500000000000000 ]
    mass: 65.380000
    reduced_to: 4
  - symbol: S  # 5
    coordinates: [  0.250000000000000,  0.250000000000000,  0.250000000000000 ]
    mass: 32.065000
    reduced_to: 5
  - symbol: S  # 6
    coordinates: [  0.750000000000000,  0.750000000000000,  0.250000000000000 ]
    mass: 32.065000
    reduced_to: 6
  - symbol: S  # 7
    coordinates: [  0.750000000000000,  0.250000000000000,  0.750000000000000 ]
    mass: 32.065000
    reduced_to: 7
  - symbol: S  # 8
    coordinates: [  0.250000000000000,  0.750000000000000,  0.750000000000000 ]
    mass: 32.065000
    reduced_to: 8

supercell:
  lattice:
  - [    10.886313362179916,     0.000000000000000,     0.000000000000000 ] # a
  - [     0.000000000000000,    10.886313362179916,     0.000000000000000 ] # b
  - [     0.000000000000000,     0.000000000000000,    10.886313362179916 ] # c
  points:
  - symbol: Zn # 1
    coordinates: [  0.000000000000000,  0.000000000000000,  0.000000000000000 ]
    mass: 65.380000
    reduced_to: 1
  - symbol: Zn # 2
    coordinates: [  0.500000000000000,  0.000000000000000,  0.000000000000000 ]
    mass: 65.380000
    reduced_to: 1
  - symbol: Zn # 3
    coordinates: [  0.000000000000000,  0.500000000000000,  0.000000000000000 ]
    mass: 65.380000
    reduced_to: 1
  - symbol: Zn # 4
    coordinates: [  0.500000000000000,  0.500000000000000,  0.000000000000000 ]
    mass: 65.380000
    reduced_to: 1
  - symbol: Zn # 5
    coordinates: [  0.000000000000000,  0.000000000000000,  0.500000000000000 ]
    mass: 65.380000
    reduced_to: 1
  - symbol: Zn # 6
    coordinates: [  0.500000000000000,  0.000000000000000,  0.500000000000000 ]
    mass: 65.380000
    reduced_to: 1
  - symbol: Zn # 7
    coordinates: [  0.000000000000000,  0.500000000000000,  0.500000000000000 ]
    mass: 65.380000
    reduced_to: 1
  - symbol: Zn # 8
    coordinates: [  0.500000000000000,  0.500000000000000,  0.500000000000000 ]
    mass: 65.380000
    reduced_to: 1
  - symbol: Zn # 9
    coordinates: [  0.250000000000000,  0.250000000000000,  0.000000000000000 ]
    mass: 65.380000
    reduced_to: 9
  - symbol: Zn # 10
    coordinates: [  0.750000000000000,  0.250000000000000,  0.000000000000000 ]
    mass: 65.380000
    reduced_to: 9
  - symbol: Zn # 11
    coordinates: [  0.250000000000000,  0.750000000000000,  0.000000000000000 ]
    mass: 65.380000
    reduced_to: 9
  - symbol: Zn # 12
    coordinates: [  0.750000000000000,  0.750000000000000,  0.000000000000000 ]
    mass: 65.380000
    reduced_to: 9
  - symbol: Zn # 13
    coordinates: [  0.250000000000000,  0.250000000000000,  0.500000000000000 ]
    mass: 65.380000
    reduced_to: 9
  - symbol: Zn # 14
    coordinates: [  0.750000000000000,  0.250000000000000,  0.500000000000000 ]
    mass: 65.380000
    reduced_to: 9
  - symbol: Zn # 15
    coordinates: [  0.250000000000000,  0.750000000000000,  0.500000000000000 ]
    mass: 65.380000
    reduced_to: 9
  - symbol: Zn # 16
    coordinates: [  0.750000000000000,  0.750000000000000,  0.500000000000000 ]
    mass: 65.380000
    reduced_to: 9
  - symbol: Zn # 17
    coordinates: [  0.250000000000000,  0.000000000000000,  0.250000000000000 ]
    mass: 65.380000
    reduced_to: 17
  - symbol: Zn # 18
    coordinates: [  0.750000000000000,  0.000000000000000,  0.250000000000000 ]
    mass: 65.380000
    reduced_to: 17
  - symbol: Zn # 19
    coordinates: [  0.250000000000000,  0.500000000000000,  0.250000000000000 ]
    mass: 65.380000
    reduced_to: 17
  - symbol: Zn # 20
    coordinates: [  0.750000000000000,  0.500000000000000,  0.250000000000000 ]
    mass: 65.380000
    reduced_to: 17
  - symbol: Zn # 21
    coordinates: [  0.250000000000000,  0.000000000000000,  0.750000000000000 ]
    mass: 65.380000
    reduced_to: 17
  - symbol: Zn # 22
    coordinates: [  0.750000000000000,  0.000000000000000,  0.750000000000000 ]
    mass: 65.380000
    reduced_to: 17
  - symbol: Zn # 23
    coordinates: [  0.250000000000000,  0.500000000000000,  0.750000000000000 ]
    mass: 65.380000
    reduced_to: 17
  - symbol: Zn # 24
    coordinates: [  0.750000000000000,  0.500000000000000,  0.750000000000000 ]
    mass: 65.380000
    reduced_to: 17
  - symbol: Zn # 25
    coordinates: [  0.000000000000000,  0.250000000000000,  0.250000000000000 ]
    mass: 65.380000
    reduced_to: 25
  - symbol: Zn # 26
    coordinates: [  0.500000000000000,  0.250000000000000,  0.250000000000000 ]
    mass: 65.380000
    reduced_to: 25
  - symbol: Zn # 27
    coordinates: [  0.000000000000000,  0.750000000000000,  0.250000000000000 ]
    mass: 65.380000
    reduced_to: 25
  - symbol: Zn # 28
    coordinates: [  0.500000000000000,  0.750000000000000,  0.250000000000000 ]
    mass: 65.380000
    reduced_to: 25
  - symbol: Zn # 29
    coordinates: [  0.000000000000000,  0.250000000000000,  0.750000000000000 ]
    mass: 65.380000
    reduced_to: 25
  - symbol: Zn # 30
    coordinates: [  0.500000000000000,  0.250000000000000,  0.750000000000000 ]
    mass: 65.380000
    reduced_to: 25
  - symbol: Zn # 31
    coordinates: [  0.000000000000000,  0.750000000000000,  0.750000000000000 ]
    mass: 65.380000
    reduced_to: 25
  - symbol: Zn # 32
    coordinates: [  0.500000000000000,  0.750000000000000,  0.750000000000000 ]
    mass: 65.380000
    reduced_to: 25
  - symbol: S  # 33
    coordinates: [  0.125000000000000,  0.125000000000000,  0.125000000000000 ]
    mass: 32.065000
    reduced_to: 33
  - symbol: S  # 34
    coordinates: [  0.625000000000000,  0.125000000000000,  0.125000000000000 ]
    mass: 32.065000
    reduced_to: 33
  - symbol: S  # 35
    coordinates: [  0.125000000000000,  0.625000000000000,  0.125000000000000 ]
    mass: 32.065000
    reduced_to: 33
  - symbol: S  # 36
    coordinates: [  0.625000000000000,  0.625000000000000,  0.125000000000000 ]
    mass: 32.065000
    reduced_to: 33
  - symbol: S  # 37
    coordinates: [  0.125000000000000,  0.125000000000000,  0.625000000000000 ]
    mass: 32.065000
    reduced_to: 33
  - symbol: S  # 38
    coordinates: [  0.625000000000000,  0.125000000000000,  0.625000000000000 ]
    mass: 32.065000
    reduced_to: 33
  - symbol: S  # 39
    coordinates: [  0.125000000000000,  0.625000000000000,  0.625000000000000 ]
    mass: 32.065000
    reduced_to: 33
  - symbol: S  # 40
    coordinates: [  0.625000000000000,  0.625000000000000,  0.625000000000000 ]
    mass: 32.065000
    reduced_to: 33
  - symbol: S  # 41
    coordinates: [  0.375000000000000,  0.375000000000000,  0.125000000000000 ]
    mass: 32.065000
    reduced_to: 41
  - symbol: S  # 42
    coordinates: [  0.875000000000000,  0.375000000000000,  0.125000000000000 ]
    mass: 32.065000
    reduced_to: 41
  - symbol: S  # 43
    coordinates: [  0.375000000000000,  0.875000000000000,  0.125000000000000 ]
    mass: 32.065000
    reduced_to: 41
  - symbol: S  # 44
    coordinates: [  0.875000000000000,  0.875000000000000,  0.125000000000000 ]
    mass: 32.065000
    reduced_to: 41
  - symbol: S  # 45
    coordinates: [  0.375000000000000,  0.375000000000000,  0.625000000000000 ]
    mass: 32.065000
    reduced_to: 41
  - symbol: S  # 46
    coordinates: [  0.875000000000000,  0.375000000000000,  0.625000000000000 ]
    mass: 32.065000
    reduced_to: 41
  - symbol: S  # 47
    coordinates: [  0.375000000000000,  0.875000000000000,  0.625000000000000 ]
    mass: 32.065000
    reduced_to: 41
  - symbol: S  # 48
    coordinates: [  0.875000000000000,  0.875000000000000,  0.625000000000000 ]
    mass: 32.065000
    reduced_to: 41
  - symbol: S  # 49
    coordinates: [  0.375000000000000,  0.125000000000000,  0.375000000000000 ]
    mass: 32.065000
    reduced_to: 49
  - symbol: S  # 50
    coordinates: [  0.875000000000000,  0.125000000000000,  0.375000000000000 ]
    mass: 32.065000
    reduced_to: 49
  - symbol: S  # 51
    coordinates: [  0.375000000000000,  0.625000000000000,  0.375000000000000 ]
    mass: 32.065000
    reduced_to: 49
  - symbol: S  # 52
    coordinates: [  0.875000000000000,  0.625000000000000,  0.375000000000000 ]
    mass: 32.065000
    reduced_to: 49
  - symbol: S  # 53
    coordinates: [  0.375000000000000,  0.125000000000000,  0.875000000000000 ]
    mass: 32.065000
    reduced_to: 49
  - symbol: S  # 54
    coordinates: [  0.875000000000000,  0.125000000000000,  0.875000000000000 ]
    mass: 32.065000
    reduced_to: 49
  - symbol: S  # 55
    coordinates: [  0.375000000000000,  0.625000000000000,  0.875000000000000 ]
    mass: 32.065000
    reduced_to: 49
  - symbol: S  # 56
    coordinates: [  0.875000000000000,  0.625000000000000,  0.875000000000000 ]
    mass: 32.065000
    reduced_to: 49
  - symbol: S  # 57
    coordinates: [  0.125000000000000,  0.375000000000000,  0.375000000000000 ]
    mass: 32.065000
    reduced_to: 57
  - symbol: S  # 58
    coordinates: [  0.625000000000000,  0.375000000000000,  0.375000000000000 ]
    mass: 32.065000
    reduced_to: 57
  - symbol: S  # 59
    coordinates: [  0.125000000000000,  0.875000000000000,  0.375000000000000 ]
    mass: 32.065000
    reduced_to: 57
  - symbol: S  # 60
    coordinates: [  0.625000000000000,  0.875000000000000,  0.375000000000000 ]
    mass: 32.065000
    reduced_to: 57
  - symbol: S  # 61
    coordinates: [  0.125000000000000,  0.375000000000000,  0.875000000000000 ]
    mass: 32.065000
    reduced_to: 57
  - symbol: S  # 62
    coordinates: [  0.625000000000000,  0.375000000000000,  0.875000000000000 ]
    mass: 32.065000
    reduced_to: 57
  - symbol: S  # 63
    coordinates: [  0.125000000000000,  0.875000000000000,  0.875000000000000 ]
    mass: 32.065000
    reduced_to: 57
  - symbol: S  # 64
    coordinates: [  0.625000000000000,  0.875000000000000,  0.875000000000000 ]
    mass: 32.065000
    reduced_to: 57
