240  
5    

1    
  0.0034403771655357   0.0000000000000004   0.0093895582941297
  -0.0700779900    0.0000792700   -0.1662424000
   0.0054636600    0.0006753000   -0.0080653700
   0.0001008000   -0.0018855600   -0.0086679400
   0.0010013900    0.0012162900   -0.0082875200
  -0.0000000600    0.0000024500    0.0051032200
   0.0000048600    0.0000014100    0.0050932200
   0.0000021800    0.0000027600    0.0050930900
  -0.0000002400    0.0000030500    0.0050925100
  -0.0020123800   -0.0000007500    0.0068026900
   0.0019851300   -0.0002194500   -0.0019023300
  -0.0000388600   -0.0002286400   -0.0021352600
  -0.0001459100    0.0004428900   -0.0022239100
  -0.0000277100   -0.0000014800   -0.0006353900
   0.0000325400   -0.0000023300   -0.0007546600
   0.0000053400   -0.0000129700   -0.0007558800
  -0.0000129600    0.0000110500   -0.0007595500
  -0.0092366300    0.0003026100    0.0478152700
   0.0033985900    0.0001839700   -0.0057154700
  -0.0003182600   -0.0004078900   -0.0052238200
   0.0000554800    0.0001319100   -0.0050869100
  -0.0000080900    0.0000038100   -0.0007045700
   0.0000043500    0.0000024500   -0.0007365800
   0.0000066500   -0.0000059900   -0.0007399400
   0.0000039700    0.0000154100   -0.0007403300
  -0.0002230400    0.0000199900    0.0057103700
   0.0000998200   -0.0000554900    0.0049452800
   0.0000721600   -0.0002107900    0.0048716500
   0.0000687600    0.0002343600    0.0048645300
  -0.0002210400    0.0000193500    0.0057059500
   0.0000754500   -0.0000012400    0.0049380400
   0.0001111200   -0.0002560900    0.0048803000
   0.0000525100    0.0002261200    0.0048655400
   0.0023435000    0.0014852200    0.0066335700
  -0.0015770800    0.0012610900    0.0048434200
   0.0003883000   -0.0000102600    0.0036771800
  -0.0011949500   -0.0028045000    0.0056681700
  -0.0000700200   -0.0000513600    0.0051460500
   0.0000855200   -0.0000439800    0.0052019800
   0.0000160200   -0.0000079500    0.0050986200
  -0.0000315700    0.0001064300    0.0051635500
   0.0000965000    0.0000624100   -0.0006482700
  -0.0000784300    0.0000682200   -0.0007232700
   0.0000260600   -0.0000012100   -0.0007940500
  -0.0000567500   -0.0001346300   -0.0006985900
  -0.0014818700   -0.0009102400   -0.0008099000
   0.0019170600   -0.0012223400    0.0004852700
   0.0002297500   -0.0000003400   -0.0022295100
  -0.0006040300    0.0021257600   -0.0002656100
   0.0148356100    0.0164296400    0.0029456900
  -0.0096157600    0.0009598200   -0.0060288500
   0.0012777800   -0.0006878400   -0.0054610300
  -0.0016801500   -0.0124732100   -0.0032377400
  -0.0000123100    0.0000005900   -0.0007265300
   0.0000088000   -0.0000056200   -0.0007185200
   0.0000019200    0.0000036600   -0.0007335300
  -0.0000004400    0.0000158300   -0.0007237700
  -0.0110584600   -0.0009068100    0.0026910800
   0.0125992600   -0.0151418600    0.0094581700
   0.0007163200    0.0004125700    0.0000517100
   0.0015775400    0.0117281800    0.0049859800
   0.0000094600    0.0000051800    0.0051644200
  -0.0000139800    0.0000020600    0.0051548300
   0.0000014800   -0.0000062600    0.0051444200
  -0.0000084200   -0.0000173600    0.0051580200
  -0.0008549100   -0.0030427500    0.0054785000
   0.0003896000    0.0000109200    0.0036140000
  -0.0019862900    0.0011567200    0.0049335400
   0.0024172100    0.0019459400    0.0065224800
  -0.0000326600    0.0000924900    0.0050979300
   0.0000186600    0.0000094400    0.0050318000
   0.0000836700   -0.0000430900    0.0051374100
  -0.0000591000   -0.0000562100    0.0050762200
   0.0018407300   -0.0099903300   -0.0266950700
   0.0008663600    0.0000006400   -0.0131401100
  -0.0018468600   -0.0108407400   -0.0340062400
   0.0160585000    0.0207530700   -0.0275037600
  -0.0000022900   -0.0000005200   -0.0007858300
  -0.0000010200   -0.0000034100   -0.0007912500
   0.0000006100   -0.0000047000   -0.0007849400
  -0.0000030700   -0.0000043000   -0.0007861700
  -0.0001372200    0.0006393900   -0.0006492100
   0.0001316400    0.0001444300   -0.0011683500
   0.0005852300   -0.0004658700   -0.0004301300
  -0.0005893600   -0.0002872100   -0.0008609100
  -0.0001157400   -0.0003536800   -0.0006928300
   0.0000833500   -0.0000486400   -0.0010282700
  -0.0003062700    0.0001659100   -0.0008220400
   0.0003302700    0.0002311000   -0.0005890600
  -0.0008264900    0.0095502200    0.0040133600
   0.0007223100    0.0004138400   -0.0000373700
   0.0111086700   -0.0120239400    0.0106998200
  -0.0070835900   -0.0018561500    0.0021490200
  -0.0000013000   -0.0000178000    0.0050839700
   0.0000042300   -0.0000068100    0.0050688300
  -0.0000142900   -0.0000012200    0.0050790100
   0.0000116600    0.0000082300    0.0050875600
   0.0076237000    0.0030572500    0.0187806100
  -0.0059214100    0.0016164600    0.0047705500
   0.0008612400   -0.0007202700    0.0049552500
  -0.0028121400   -0.0049349000    0.0057944700
  -0.0001439200   -0.0007928400   -0.0014635700
  -0.0001463400   -0.0007894600   -0.0014544300
  -0.0001488200   -0.0007879600   -0.0014552400
  -0.0001429000   -0.0007854100   -0.0014548100
   0.0001903300   -0.0004004400   -0.0016491200
   0.0006883300    0.0006146300   -0.0009071400
   0.0001202400    0.0009525700   -0.0011246400
   0.0013625200    0.0008307900   -0.0021652200
   0.0006656700    0.0006220800   -0.0014043300
   0.0005373900    0.0005587500   -0.0014155100
   0.0005945100    0.0004920900   -0.0013955400
   0.0006469900    0.0004280600   -0.0016062100
   0.0010414000   -0.0015233300    0.0085996700
   0.0018147800   -0.0003805000    0.0150269600
   0.0006500700    0.0012147800    0.0045771900
   0.0009020500   -0.0027189100    0.0047069200
   0.0007437200    0.0002687700   -0.0014577600
   0.0007519500    0.0002693500   -0.0014605700
   0.0007496300    0.0002649400   -0.0014543600
   0.0007503400    0.0002713800   -0.0014565000
  -0.0010462600    0.0005271600   -0.0026111500
  -0.0001902700    0.0001978300   -0.0011880500
  -0.0008587100    0.0000561000   -0.0009302200
  -0.0008021800    0.0002379100   -0.0009642600
  -0.0006610700    0.0002800700   -0.0015359000
  -0.0008913100    0.0002642700   -0.0014706200
  -0.0007200100    0.0003489700   -0.0014429200
  -0.0007301400    0.0001849900   -0.0013794200
  -0.0008611200    0.0060658200    0.0061897300
   0.0022752100    0.0017234100    0.0047728600
   0.0107240000   -0.0013099900    0.0205651700
  -0.0045977300   -0.0010215800    0.0040620600
  -0.0006048800    0.0005118800   -0.0014536300
  -0.0006087000    0.0005128200   -0.0014552400
  -0.0006073700    0.0005161700   -0.0014607900
  -0.0006072600    0.0005163800   -0.0014530500
   0.0006493500   -0.0012029000   -0.0020046200
  -0.0002958100   -0.0011746000   -0.0014780600
  -0.0002637500    0.0001040900   -0.0015829400
   0.0004260300   -0.0007680700   -0.0007884800
   0.0001266300   -0.0007312400   -0.0015913400
   0.0001451400   -0.0007423000   -0.0013852900
   0.0002187100   -0.0008563700   -0.0013912700
   0.0000860400   -0.0008127300   -0.0014523400
  -0.0019342300   -0.0022122300    0.0011589900
   0.0005042400   -0.0022804400    0.0001670900
  -0.0010166700   -0.0006816200    0.0014959700
   0.0007205100    0.0040832500   -0.0043032200
  -0.0002695000   -0.0009692600   -0.0009546200
  -0.0002841100   -0.0009530900   -0.0009729900
  -0.0002838800   -0.0009763200   -0.0009627900
  -0.0002538800   -0.0009915900   -0.0009952400
   0.0040684200    0.0008733700   -0.0032386900
  -0.0034323800    0.0007466500   -0.0028018400
   0.0004134000    0.0018335100    0.0012084900
   0.0002487600   -0.0003670400    0.0009884700
   0.0006979500    0.0007130100   -0.0010078700
   0.0007375200    0.0007229100   -0.0009780600
   0.0007036900    0.0007199300   -0.0009598700
   0.0007043600    0.0007280100   -0.0009532100
  -0.0000681700   -0.0037811300   -0.0042291900
   0.0012903500   -0.0004757800    0.0017198100
   0.0000554900    0.0007723700    0.0006623900
   0.0022237600    0.0011838800    0.0007573700
   0.0010002200    0.0002723300   -0.0009956500
   0.0009700100    0.0002612100   -0.0009694600
   0.0009822300    0.0002542900   -0.0009634800
   0.0009762000    0.0002301200   -0.0009724900
  -0.0006017100   -0.0001135800    0.0014105200
  -0.0014600600    0.0046885500   -0.0059604100
  -0.0017513600   -0.0007334800    0.0010161900
   0.0004804100   -0.0019790600   -0.0005700100
  -0.0009944000    0.0002375500   -0.0009677600
  -0.0009587000    0.0002360600   -0.0009928000
  -0.0009743300    0.0002465700   -0.0009570700
  -0.0009908200    0.0002872200   -0.0009955800
  -0.0050704800    0.0002997200   -0.0034827900
   0.0033001600    0.0003462500   -0.0012290400
  -0.0003552500   -0.0000237600    0.0011325700
  -0.0002866100    0.0025697800    0.0013669600
  -0.0006898600    0.0007255100   -0.0009673600
  -0.0007316500    0.0007220400   -0.0010074100
  -0.0007082700    0.0007227800   -0.0009683800
  -0.0007096100    0.0007214400   -0.0009609900
   0.0017629700    0.0012080200   -0.0006787700
  -0.0004592800    0.0003695000    0.0008332700
   0.0005781400   -0.0008999000    0.0013167300
   0.0002088500   -0.0053071700   -0.0049536700
   0.0002506600   -0.0010043500   -0.0009915500
   0.0002771100   -0.0009751900   -0.0009573200
   0.0002515600   -0.0009614200   -0.0009725800
   0.0002836700   -0.0009538500   -0.0009925400
  -0.0002278600   -0.0010861200   -0.0018674600
  -0.0002391600   -0.0009075400   -0.0018361200
  -0.0004094300   -0.0009714600   -0.0019749400
  -0.0000792400   -0.0009943300   -0.0020823400
  -0.0003846200   -0.0006739200   -0.0014620500
  -0.0004136600   -0.0010867500   -0.0015710300
   0.0003133400   -0.0010115600   -0.0019172800
  -0.0005081700   -0.0012120900   -0.0027301800
   0.0016030900    0.0095299200    0.0268697000
  -0.0045819100   -0.0013200700    0.0042696900
  -0.0009223400    0.0084035700    0.0069605600
   0.0022223400    0.0022712700    0.0039495700
   0.0007331600    0.0007088200   -0.0019399700
   0.0007310600    0.0007087900   -0.0019317200
   0.0007335400    0.0007036100   -0.0019364900
   0.0007306300    0.0007066200   -0.0019325900
   0.0010583700    0.0001452100   -0.0018701100
   0.0009167500    0.0002181200   -0.0018785700
   0.0009552100    0.0004562400   -0.0021597200
   0.0009790700    0.0003070800   -0.0018317600
   0.0006745100    0.0011276500   -0.0023798300
   0.0011690800    0.0001714800   -0.0014629900
   0.0014842600    0.0000223300   -0.0023340900
   0.0005879300   -0.0001638500   -0.0016299800
  -0.0022372900   -0.0060479700    0.0069333500
   0.0003026000   -0.0009946000    0.0042094500
  -0.0083600800    0.0027761500    0.0035534900
   0.0036565500   -0.0094679900    0.0271647900
  -0.0009731600    0.0002805500   -0.0019311500
  -0.0009780300    0.0002796100   -0.0019293900
  -0.0009758900    0.0002781800   -0.0019281500
  -0.0009754400    0.0002775400   -0.0019353900
  -0.0007535800    0.0005474600   -0.0021229100
  -0.0007538700    0.0006842800   -0.0018683200
  -0.0008061200    0.0007634900   -0.0018901400
  -0.0006265200    0.0008370000   -0.0018665800
  -0.0003581400    0.0010590800   -0.0023803600
  -0.0010416500    0.0010831600   -0.0017637900
  -0.0003692100    0.0007260600   -0.0013930800
  -0.0011545800    0.0000147500   -0.0022321300
   0.0012610200   -0.0030889700    0.0038205800
   0.0012173000    0.0005196500    0.0041006700
   0.0332514200    0.0007383500    0.0360887800
   0.0018234900   -0.0011536700    0.0083683200
   0.0002439200   -0.0009876700   -0.0019284700
   0.0002457200   -0.0009916200   -0.0019276800
   0.0002459600   -0.0009896500   -0.0019339100
   0.0002398700   -0.0009894500   -0.0019339600

1    
 -0.0034403771655357  -0.0000000000000004  -0.0093895582941297
   0.0687415500    0.0000758600    0.1743080700
  -0.0054656100   -0.0006745800    0.0138990500
  -0.0000893000    0.0018817500    0.0144970600
  -0.0009935200   -0.0012008000    0.0141184000
   0.0000041900    0.0000023200    0.0007273800
  -0.0000017200    0.0000025500    0.0007376800
   0.0000018600    0.0000029300    0.0007382400
   0.0000029500    0.0000019600    0.0007386500
   0.0019819900   -0.0000009100   -0.0125244900
  -0.0019845100    0.0002157400   -0.0039242800
   0.0000440100    0.0002152900   -0.0036933000
   0.0001466200   -0.0004358100   -0.0036049600
   0.0000272800   -0.0000014700   -0.0051792700
  -0.0000348800   -0.0000011700   -0.0050593100
  -0.0000064700    0.0000110200   -0.0050584200
   0.0000111700   -0.0000143200   -0.0050553000
   0.0094115700   -0.0002993300   -0.0544948600
  -0.0033977300   -0.0001770900   -0.0001164000
   0.0003146300    0.0004274800   -0.0006058200
  -0.0000573100   -0.0001327300   -0.0007426400
   0.0000125400    0.0000040300   -0.0051166100
  -0.0000010100    0.0000045800   -0.0050843000
  -0.0000024200    0.0000148400   -0.0050811000
  -0.0000011600   -0.0000080100   -0.0050801300
   0.0002185500   -0.0000240900    0.0001166100
  -0.0001031600    0.0000503400    0.0008737500
  -0.0000730200    0.0002030300    0.0009479300
  -0.0000713800   -0.0002368900    0.0009560900
   0.0002206000   -0.0000247800    0.0001167100
  -0.0000799700   -0.0000040900    0.0008875600
  -0.0001149700    0.0002538700    0.0009439800
  -0.0000555200   -0.0002329900    0.0009590000
  -0.0023100900   -0.0014834200   -0.0006807400
   0.0015716500   -0.0012434100    0.0010909600
  -0.0003871100    0.0000116500    0.0022539600
   0.0011742300    0.0027789500    0.0002810000
   0.0000713400    0.0000521300    0.0007974600
  -0.0000860500    0.0000456000    0.0007408400
  -0.0000169200    0.0000105500    0.0008444600
   0.0000330100   -0.0001051900    0.0007790900
  -0.0001031200   -0.0000650500   -0.0051447100
   0.0000717300   -0.0000707800   -0.0050710200
  -0.0000331400   -0.0000007700   -0.0050004700
   0.0000503200    0.0001323300   -0.0050948000
   0.0014761200    0.0009089500   -0.0049815700
  -0.0019373500    0.0012182100   -0.0062857300
  -0.0002387000    0.0000001600   -0.0035655100
   0.0006082700   -0.0021351200   -0.0055309800
  -0.0147011200   -0.0163839500   -0.0087754800
   0.0096624100   -0.0009464400    0.0001350700
  -0.0012763000    0.0006920800   -0.0003825600
   0.0016160900    0.0124423200   -0.0026560300
   0.0000116200    0.0000066900   -0.0050841500
  -0.0000101400    0.0000127000   -0.0050916700
  -0.0000026500    0.0000041800   -0.0050772800
  -0.0000000000   -0.0000088500   -0.0050868700
   0.0110290300    0.0008972300    0.0032645700
  -0.0126900900    0.0151682800   -0.0035787500
  -0.0007254300   -0.0004225100    0.0058951300
  -0.0015444500   -0.0117524400    0.0009636500
  -0.0000150300   -0.0000135100    0.0007853500
   0.0000078300   -0.0000111200    0.0007946400
  -0.0000070700   -0.0000014600    0.0008056900
   0.0000025100    0.0000097400    0.0007914500
   0.0008729800    0.0030531500    0.0003293100
  -0.0003852100   -0.0000111600    0.0021933900
   0.0019906500   -0.0011593200    0.0008805800
  -0.0024232700   -0.0019432400   -0.0007194300
   0.0000384900   -0.0000908900    0.0007094600
  -0.0000135400   -0.0000088300    0.0007754000
  -0.0000772600    0.0000445100    0.0006706400
   0.0000643000    0.0000574300    0.0007318000
  -0.0018360200    0.0098488300    0.0208323500
  -0.0008677700    0.0000004200    0.0072051700
   0.0017182100    0.0108991300    0.0280417000
  -0.0160930400   -0.0208261200    0.0217049700
   0.0000009700   -0.0000052900   -0.0051485300
  -0.0000026100   -0.0000035400   -0.0051432600
  -0.0000024800   -0.0000014500   -0.0051492800
  -0.0000006400   -0.0000026600   -0.0051479100
   0.0001373600   -0.0006308800   -0.0052837900
  -0.0001277900   -0.0001410600   -0.0047694900
  -0.0005760700    0.0004670800   -0.0055006500
   0.0005873700    0.0002891100   -0.0050741200
   0.0001196200    0.0003585600   -0.0052406100
  -0.0000806300    0.0000509200   -0.0049026700
   0.0003108900   -0.0001622600   -0.0051092800
  -0.0003299600   -0.0002273100   -0.0053436300
   0.0007674700   -0.0095144100    0.0017199300
  -0.0007184600   -0.0004221000    0.0058070500
  -0.0109928200    0.0119954600   -0.0049171500
   0.0070997900    0.0018247800    0.0035761700
   0.0000019200    0.0000097000    0.0007147200
  -0.0000043700   -0.0000020300    0.0007302900
   0.0000154000   -0.0000078900    0.0007201400
  -0.0000128400   -0.0000174600    0.0007107200
  -0.0081770900   -0.0040424400   -0.0192400400
   0.0051786200   -0.0029314900   -0.0047701600
  -0.0016145600   -0.0005959800   -0.0049550000
   0.0020518100    0.0036382100   -0.0058101200
  -0.0006139100   -0.0005202200    0.0014589000
  -0.0006091700   -0.0005214000    0.0014493800
  -0.0006087400   -0.0005261500    0.0014491400
  -0.0006121000   -0.0005266200    0.0014481200
   0.0005647400    0.0017038400    0.0016432800
   0.0000665700    0.0007003700    0.0009131500
   0.0006357200    0.0003604600    0.0011275800
  -0.0005975200    0.0004810200    0.0021577600
   0.0000937800    0.0006927000    0.0014015500
   0.0002229600    0.0007553600    0.0014138000
   0.0001662700    0.0008218900    0.0013913400
   0.0001108000    0.0008851200    0.0016033300
   0.0004625100    0.0015267000   -0.0085939700
  -0.0019411900    0.0004485200   -0.0165955100
   0.0008546700   -0.0012074900   -0.0045823500
   0.0005983000    0.0027124200   -0.0047057200
   0.0007567000   -0.0002671400    0.0014520500
   0.0007492400   -0.0002677400    0.0014554000
   0.0007504400   -0.0002633900    0.0014470300
   0.0007511200   -0.0002702700    0.0014496600
  -0.0004569700   -0.0005233500    0.0025963900
  -0.0013061700   -0.0001977600    0.0011860400
  -0.0006404400   -0.0000538600    0.0009315400
  -0.0006953600   -0.0002371700    0.0009666600
  -0.0008428300   -0.0002770300    0.0015298600
  -0.0006067600   -0.0002627400    0.0014645300
  -0.0007812500   -0.0003496100    0.0014388200
  -0.0007725100   -0.0001808500    0.0013741400
   0.0001071900   -0.0047900700   -0.0062025700
  -0.0030257800   -0.0004216700   -0.0047707200
  -0.0113342100    0.0022311400   -0.0210527400
   0.0038610100    0.0023227900   -0.0040601200
  -0.0001478300    0.0007871200    0.0014499800
  -0.0001417500    0.0007862800    0.0014516700
  -0.0001450700    0.0007826100    0.0014586900
  -0.0001434300    0.0007826900    0.0014503200
   0.0001075600   -0.0000974100    0.0020008200
   0.0010459000   -0.0001216400    0.0014822700
   0.0010082100   -0.0013934400    0.0015770900
   0.0003269900   -0.0005287000    0.0007937500
   0.0006247700   -0.0005684800    0.0015892200
   0.0006065000   -0.0005557300    0.0013816100
   0.0005304200   -0.0004436600    0.0013890500
   0.0006688200   -0.0004862800    0.0014513000
   0.0009128200    0.0005277400   -0.0001800600
  -0.0015220500    0.0006089300    0.0008404300
   0.0000056600   -0.0009913300   -0.0005149500
  -0.0017233000   -0.0057051000    0.0052445400
  -0.0007407100   -0.0007089000    0.0019202500
  -0.0007252300   -0.0007266200    0.0019378800
  -0.0007247000   -0.0007013700    0.0019288500
  -0.0007578500   -0.0006864800    0.0019612100
  -0.0031144300    0.0008352700    0.0041934200
   0.0043833200    0.0009653200    0.0037455900
   0.0005476000   -0.0001271000   -0.0002496000
   0.0007054600    0.0020800900   -0.0000284400
   0.0002613300    0.0010003300    0.0019675500
   0.0002227300    0.0009905600    0.0019369500
   0.0002538100    0.0009917500    0.0019204800
   0.0002552700    0.0009841100    0.0019125000
   0.0020138000    0.0037107200    0.0051629600
   0.0006729000    0.0004434700   -0.0007483100
   0.0018993500   -0.0007948500    0.0003097100
  -0.0002535700   -0.0012189700    0.0002411600
   0.0009641900   -0.0002987400    0.0019532500
   0.0009960500   -0.0002873300    0.0019269800
   0.0009828300   -0.0002814500    0.0019207900
   0.0009899700   -0.0002568700    0.0019321700
  -0.0013589800    0.0000844900   -0.0004569200
  -0.0004988900   -0.0047384100    0.0069414400
  -0.0002067600    0.0006999100   -0.0000619600
  -0.0024380400    0.0019367400    0.0015012200
  -0.0009675200   -0.0002680100    0.0019188600
  -0.0010049300   -0.0002670600    0.0019449100
  -0.0009867600   -0.0002788600    0.0019086600
  -0.0009717800   -0.0003217000    0.0019486700
   0.0041084500    0.0014191400    0.0044749900
  -0.0042221000    0.0013601700    0.0022022800
  -0.0005956400    0.0017318600   -0.0001597200
  -0.0006658800   -0.0008425100   -0.0003945800
  -0.0002672800    0.0009903300    0.0019234100
  -0.0002237500    0.0009928100    0.0019651400
  -0.0002472400    0.0009905000    0.0019255700
  -0.0002478400    0.0009928800    0.0019170700
  -0.0007612600   -0.0028767700    0.0016140900
   0.0014602200   -0.0020533100    0.0001193900
   0.0004214400   -0.0007833300   -0.0003637300
   0.0007730300    0.0036507300    0.0059251100
   0.0007472800   -0.0006775300    0.0019433500
   0.0007203700   -0.0007057200    0.0019089000
   0.0007462000   -0.0007216500    0.0019241900
   0.0007128800   -0.0007294300    0.0019446000
  -0.0007200900   -0.0006301700    0.0008981300
  -0.0007112000   -0.0008083600    0.0008675200
  -0.0005401100   -0.0007438800    0.0010043800
  -0.0008707100   -0.0007222600    0.0011117300
  -0.0005639500   -0.0010431200    0.0004892500
  -0.0005356200   -0.0006309300    0.0005959100
  -0.0012637600   -0.0007042600    0.0009438000
  -0.0004371000   -0.0005016900    0.0017584300
  -0.0007262500   -0.0077048100   -0.0278485300
   0.0055822300    0.0030082900   -0.0052210400
   0.0019245700   -0.0066986100   -0.0078940100
  -0.0012452500   -0.0006027200   -0.0049058600
   0.0002680500    0.0009747500    0.0009778700
   0.0002709800    0.0009763600    0.0009699400
   0.0002673000    0.0009797100    0.0009738600
   0.0002717700    0.0009778800    0.0009704600
   0.0009030300   -0.0001170100    0.0009107400
   0.0010466700   -0.0001875200    0.0009172200
   0.0010072100   -0.0004264700    0.0011959600
   0.0009845100   -0.0002769000    0.0008704800
   0.0012903800   -0.0011011500    0.0014198000
   0.0007948900   -0.0001378500    0.0004970800
   0.0004745200    0.0000082000    0.0013689400
   0.0013791200    0.0001921600    0.0006636900
   0.0003053300    0.0060551400   -0.0078619200
  -0.0022720000    0.0010231700   -0.0051542900
   0.0064221200   -0.0027699700   -0.0044989700
  -0.0056629300    0.0094465000   -0.0281754200
  -0.0009813300   -0.0002597700    0.0009787300
  -0.0009758100   -0.0002573700    0.0009752100
  -0.0009784600   -0.0002557600    0.0009741500
  -0.0009777300   -0.0002542000    0.0009809300
  -0.0002517200    0.0011402500    0.0011590300
  -0.0002516800    0.0010046100    0.0009074200
  -0.0002006600    0.0009247000    0.0009274800
  -0.0003788400    0.0008513800    0.0009033400
  -0.0006533600    0.0006305400    0.0014153500
   0.0000367300    0.0006079900    0.0007968900
  -0.0006379500    0.0009598100    0.0004257000
   0.0001488400    0.0016744100    0.0012674000
  -0.0003070900    0.0014109800   -0.0047658200
  -0.0002626000   -0.0022506200   -0.0050446300
  -0.0296205300   -0.0026044500   -0.0358441600
  -0.0008938700   -0.0005559200   -0.0093315300
   0.0007080200   -0.0007274200    0.0009744800
   0.0007086500   -0.0007222100    0.0009744500
   0.0007058500   -0.0007235800    0.0009799400
   0.0007144700   -0.0007230800    0.0009800600

97   
  0.0100000000000000   0.0000000000000012   0.0000000000000000
   0.0203396800   -0.0046686800    0.0040064500
  -0.0062240400    0.0002957800   -0.0007397000
  -0.0021166800    0.0041258100    0.0049945200
   0.0010464300   -0.0050264600   -0.0000705200
   0.0000080100    0.0000003000    0.0031606200
  -0.0000046700    0.0000036400    0.0031622200
   0.0000003600    0.0000054100    0.0031577400
   0.0000031300   -0.0000011900    0.0031627100
   0.0009805400   -0.0004374300   -0.0022215900
  -0.0006740500   -0.0000413900   -0.0029353800
  -0.0003919900    0.0009362000   -0.0024340900
   0.0000628700   -0.0003748400   -0.0031279700
   0.0001398200   -0.0000040000   -0.0026750300
  -0.0001413000   -0.0000024200   -0.0026295300
  -0.0000292600    0.0000785700   -0.0027309600
   0.0000138900   -0.0000731300   -0.0026098500
   0.0227662700   -0.0006386800   -0.0064686700
  -0.0065835700    0.0005505300   -0.0008042500
  -0.0016618800    0.0041372600   -0.0063378100
   0.0003545300   -0.0061719500   -0.0022668100
   0.0000076700   -0.0000001700   -0.0026610100
  -0.0000043600    0.0000039100   -0.0026651800
   0.0000004900    0.0000079400   -0.0026607300
   0.0000035500    0.0000027200   -0.0026657800
   0.0001148600   -0.0000795200    0.0032200400
  -0.0001264400    0.0000057800    0.0031116000
  -0.0000162500    0.0001104400    0.0032161100
   0.0000163200   -0.0000305400    0.0030841100
   0.0011487000   -0.0000545300    0.0030413600
  -0.0009414300   -0.0000259000    0.0032796300
  -0.0002858400    0.0006321600    0.0027520500
  -0.0000056900   -0.0006201900    0.0035855700
   0.0004222300   -0.0000214300    0.0027784900
  -0.0005699500   -0.0001258400    0.0040166200
   0.0000174300    0.0000396600    0.0030281400
   0.0000980200   -0.0000163800    0.0030289700
   0.0000139900   -0.0000217500    0.0033848500
  -0.0000122300   -0.0000110700    0.0030416900
  -0.0000007300    0.0000939500    0.0032192000
   0.0000163800   -0.0000549400    0.0032241300
   0.0000211600   -0.0000049500   -0.0026717400
  -0.0000223500   -0.0000054100   -0.0026138500
  -0.0000053600    0.0000027800   -0.0026549400
  -0.0000075400    0.0000010900   -0.0026546600
  -0.0011244500   -0.0005041500    0.0013416800
  -0.0029026000    0.0000391400   -0.0059982200
   0.0000833300    0.0004128300   -0.0029993800
   0.0003686900   -0.0004976100   -0.0032795700
   0.0001401100   -0.0002234900   -0.0068672100
  -0.0055937500   -0.0001627300   -0.0000652400
   0.0000654300    0.0010263500   -0.0030108300
   0.0005868900   -0.0012079800   -0.0028905000
   0.0000062700    0.0000002800   -0.0026333500
  -0.0000074700    0.0000008400   -0.0026838500
  -0.0000003600    0.0000074200   -0.0026604100
  -0.0000012800    0.0000034100   -0.0026603500
   0.0503907500    0.0018647800   -0.0138079400
  -0.0100870900    0.0022992200   -0.0021590200
   0.0005570500    0.0007405400    0.0023859500
  -0.0001207800   -0.0015634600    0.0020871100
  -0.0000006300   -0.0000056300    0.0032184600
  -0.0000057000   -0.0000043000    0.0032242900
  -0.0000020000   -0.0000031400    0.0032196900
  -0.0000030700   -0.0000050800    0.0032202400
   0.0064068200    0.0021564000    0.0018481000
  -0.0027729000   -0.0007405600    0.0033766100
  -0.0011291100    0.0039524200    0.0043928700
  -0.0006996500   -0.0017096600    0.0016442100
   0.0000226600    0.0000097100    0.0031637400
  -0.0000196600   -0.0000018300    0.0031457200
   0.0000088800    0.0000096500    0.0031356400
  -0.0000024700   -0.0000189000    0.0031557500
   0.0290850900   -0.0108679700   -0.0122308200
  -0.0068707300   -0.0000950200   -0.0058825900
   0.0021451500    0.0070330000   -0.0052707900
  -0.0040623500   -0.0076157900    0.0003494700
   0.0000032000   -0.0000036300   -0.0027210000
  -0.0000060200   -0.0000055400   -0.0027191400
  -0.0000013400   -0.0000001700   -0.0027187900
  -0.0000023800   -0.0000065000   -0.0027221100
   0.0001785800    0.0000908900   -0.0026320900
  -0.0001906400   -0.0000284100   -0.0027674400
   0.0000353400    0.0000366100   -0.0028202400
  -0.0000316300   -0.0001146800   -0.0026546100
   0.0008196600   -0.0000526500   -0.0028238600
  -0.0006027600    0.0000008100   -0.0026130300
   0.0000353300    0.0004776500   -0.0022605700
  -0.0001911900   -0.0003963100   -0.0031800300
   0.0048922400    0.0034603700    0.0049985000
  -0.0016784500   -0.0002146200    0.0021924900
  -0.0002848600    0.0014848400    0.0014525900
  -0.0008453900   -0.0014156000    0.0036052500
   0.0000321900   -0.0000120300    0.0031368400
  -0.0000327400   -0.0000041500    0.0031470600
   0.0000060700    0.0000193000    0.0031632100
  -0.0000070300   -0.0000229000    0.0031294800
  -0.1819694000    0.0020815600    0.0489704000
   0.0046797500   -0.0003920100    0.0000160500
  -0.0007974400   -0.0035549300    0.0003407300
  -0.0004124600    0.0034196900    0.0006860200
  -0.0003541900   -0.0006694300   -0.0001670100
  -0.0003484700   -0.0006713800   -0.0001687100
  -0.0003509900   -0.0006715000   -0.0001667100
  -0.0003517200   -0.0006692500   -0.0001662700
   0.0002535700    0.0006243700   -0.0000272800
   0.0006878500    0.0005473700   -0.0004488400
   0.0004647500    0.0005847900   -0.0000418700
   0.0002698600    0.0008078700   -0.0002068200
   0.0003496000    0.0006804300   -0.0003013800
   0.0005178400    0.0006152100    0.0000025000
   0.0005723400    0.0004818200   -0.0003492500
   0.0001930800    0.0007625700   -0.0000094400
   0.0157480600   -0.0085126700    0.0005817700
   0.0304923600    0.0221691800   -0.0013922500
  -0.0029702400    0.0022674500    0.0004216300
   0.0045097800   -0.0009454500    0.0005460800
   0.0007493300    0.0000297800   -0.0001674100
   0.0007470100    0.0000321100   -0.0001687600
   0.0007466100    0.0000307000   -0.0001672700
   0.0007499900    0.0000296400   -0.0001668700
  -0.0009047300    0.0000630500   -0.0000645900
  -0.0005258800    0.0000989900   -0.0003123300
  -0.0008688400   -0.0001792200   -0.0002466900
  -0.0007082100    0.0000921700   -0.0000649700
  -0.0008906200    0.0000546900   -0.0003660200
  -0.0005773000    0.0000166600    0.0000109300
  -0.0008857000   -0.0001693400    0.0000147800
  -0.0006749700    0.0001839800   -0.0002658200
   0.0110238100   -0.0103357000    0.0005094700
   0.0111688300    0.0111464400    0.0014743400
  -0.0072297800   -0.0003587900    0.0004877700
   0.0048527100    0.0007484600    0.0008748200
  -0.0004005600    0.0006310900   -0.0001659100
  -0.0004021200    0.0006329200   -0.0001662500
  -0.0004023100    0.0006311900   -0.0001663600
  -0.0004000500    0.0006335700   -0.0001648700
   0.0001057300   -0.0006450500   -0.0004618500
   0.0005441300   -0.0006371200    0.0000555300
   0.0003847000   -0.0007237100   -0.0000714800
   0.0003729100   -0.0006181900   -0.0000989800