nqpoint: 2      
natom:   10     
reciprocal_lattice:
- [   0.20810182,   0.12014764,   0.07624946 ] # a*
- [  -0.20810182,   0.12014764,   0.07624946 ] # b*
- [   0.00000000,  -0.24029528,   0.07624946 ] # c*
phonon:
- q-position: [    0.0000000,    0.0000000,    0.0000000 ]
  band:
  - # 1
    frequency:   -0.0128612083
    eigenvector:
    - # atom 1
      - [  0.00000000053395,  0.00000000000000 ]
      - [  0.00000000356535, -0.00000000216977 ]
      - [ -0.19997390329973, -0.30344901178395 ]
    - # atom 2
      - [ -0.00000000021061,  0.00000000049067 ]
      - [ -0.00000000336842,  0.00000000239965 ]
      - [ -0.19997391169593, -0.30344900625089 ]
    - # atom 3
      - [  0.00000000053387, -0.00000000000013 ]
      - [ -0.00000000336855,  0.00000000239945 ]
      - [ -0.19997391169594, -0.30344900625089 ]
    - # atom 4
      - [ -0.00000000021067,  0.00000000049056 ]
      - [  0.00000000356525, -0.00000000216992 ]
      - [ -0.19997390329974, -0.30344901178396 ]
    - # atom 5
      - [ -0.00003802315332, -0.00005769692210 ]
      - [  0.00002195311029,  0.00003331134337 ]
      - [ -0.15428891742576, -0.23412464007622 ]
    - # atom 6
      - [ -0.00003802219169, -0.00005769755548 ]
      - [  0.00002195198586,  0.00003331208495 ]
      - [ -0.15428891752846, -0.23412464000854 ]
    - # atom 7
      - [  0.00000000023109,  0.00000000011932 ]
      - [ -0.00004390486823, -0.00006662316215 ]
      - [ -0.15428891747715, -0.23412464004244 ]
    - # atom 8
      - [  0.00000000001848,  0.00000000025938 ]
      - [ -0.00004390486821, -0.00006662316212 ]
      - [ -0.15428891747717, -0.23412464004248 ]
    - # atom 9
      - [  0.00003802244071,  0.00005769793337 ]
      - [  0.00002195198534,  0.00003331208416 ]
      - [ -0.15428891752860, -0.23412464000875 ]
    - # atom 10
      - [  0.00003802340222,  0.00005769729980 ]
      - [  0.00002195311002,  0.00003331134297 ]
      - [ -0.15428891742587, -0.23412464007639 ]
  - # 2
    frequency:   -0.0078541864
    eigenvector:
    - # atom 1
      - [  0.21147076794369,  0.00000000000000 ]
      - [  0.29585479918577, -0.00089777523133 ]
      - [  0.00000000030035,  0.00000000290844 ]
    - # atom 2
      - [  0.21147076795662,  0.00000000627399 ]
      - [  0.29585479914363, -0.00089778541035 ]
      - [  0.00000000028511, -0.00000000287835 ]
    - # atom 3
      - [  0.21156048535185, -0.00000027024591 ]
      - [  0.29579065047584, -0.00089778906521 ]
      - [  0.00000000028497, -0.00000000216694 ]
    - # atom 4
      - [  0.21156048536477, -0.00000026803949 ]
      - [  0.29579065051790, -0.00089777149580 ]
      - [  0.00000000030055,  0.00000000219704 ]
    - # atom 5
      - [  0.16300873655967, -0.00000036071072 ]
      - [  0.22802206297487, -0.00069182911115 ]
      - [  0.00000673341425,  0.00000008783073 ]
    - # atom 6
      - [  0.16300873654048, -0.00000036441574 ]
      - [  0.22802206298789, -0.00069182868064 ]
      - [  0.00000673339679,  0.00000008355504 ]
    - # atom 7
      - [  0.16302917226521, -0.00000009880524 ]
      - [  0.22781232714482, -0.00069137449107 ]
      - [  0.00005647946427, -0.00000016999047 ]
    - # atom 8
      - [  0.16302917224252, -0.00000010622307 ]
      - [  0.22781232714480, -0.00069138215601 ]
      - [  0.00005647946407, -0.00000017279937 ]
    - # atom 9
      - [  0.16283731784868,  0.00000016248904 ]
      - [  0.22789949723098, -0.00069182459332 ]
      - [ -0.00006321220070,  0.00000008191425 ]
    - # atom 10
      - [  0.16283731782834,  0.00000015284778 ]
      - [  0.22789949721768, -0.00069183304434 ]
      - [ -0.00006321218277,  0.00000008955949 ]
  - # 3
    frequency:   -0.0078541864
    eigenvector:
    - # atom 1
      - [ -0.29585616133843,  0.00000000000000 ]
      - [  0.21146979431339, -0.00064170713558 ]
      - [ -0.00000000014622,  0.00000000132774 ]
    - # atom 2
      - [ -0.29585616132919,  0.00000000018732 ]
      - [  0.21146979428333, -0.00064172222378 ]
      - [ -0.00000000015712, -0.00000000130622 ]
    - # atom 3
      - [ -0.29579201296659, -0.00000019746430 ]
      - [  0.21155951210260, -0.00064171702622 ]
      - [ -0.00000000015709, -0.00000000230118 ]
    - # atom 4
      - [ -0.29579201295737, -0.00000019158809 ]
      - [  0.21155951213275, -0.00064171227416 ]
      - [ -0.00000000014616,  0.00000000232271 ]
    - # atom 5
      - [ -0.22780157820178, -0.00000025634637 ]
      - [  0.16290733067407, -0.00049450928178 ]
      - [ -0.00006910425131,  0.00000006456017 ]
    - # atom 6
      - [ -0.22780157821684, -0.00000026526889 ]
      - [  0.16290733068247, -0.00049450049790 ]
      - [ -0.00006910426418,  0.00000005794210 ]
    - # atom 7
      - [ -0.22801131443928, -0.00000007227916 ]
      - [  0.16288689585793, -0.00049418818954 ]
      - [  0.00004038280602, -0.00000012447377 ]
    - # atom 8
      - [ -0.22801131445548, -0.00000007758294 ]
      - [  0.16288689585789, -0.00049417746941 ]
      - [  0.00004038280618, -0.00000012054526 ]
    - # atom 9
      - [ -0.22792414339545,  0.00000011135318 ]
      - [  0.16307875018333, -0.00049450605028 ]
      - [  0.00002872109466,  0.00000006033056 ]
    - # atom 10
      - [ -0.22792414340992,  0.00000011073304 ]
      - [  0.16307875017362, -0.00049450361673 ]
      - [  0.00002872110739,  0.00000006223601 ]
  - # 4
    frequency:    8.6157359601
    eigenvector:
    - # atom 1
      - [  0.00000000034722,  0.00000000000000 ]
      - [ -0.00000003827629, -0.00000000002766 ]
      - [ -0.00035019121023,  0.49434700375355 ]
    - # atom 2
      - [  0.00000000034722,  0.00000000000075 ]
      - [ -0.00000003827629, -0.00000000002624 ]
      - [  0.00035022690203, -0.49434700372829 ]
    - # atom 3
      - [  0.00000000034722,  0.00000000000055 ]
      - [  0.00000003827629,  0.00000000002792 ]
      - [ -0.00035022690202,  0.49434700372809 ]
    - # atom 4
      - [  0.00000000034722,  0.00000000000010 ]
      - [  0.00000003827629,  0.00000000002671 ]
      - [  0.00035019121023, -0.49434700375335 ]
    - # atom 5
      - [ -0.00003518368515,  0.04966932823963 ]
      - [  0.00002031411463, -0.02867660002921 ]
      - [  0.00001515377627, -0.02139828793847 ]
    - # atom 6
      - [  0.00003519055978, -0.04966932823498 ]
      - [ -0.00002031647463,  0.02867660002716 ]
      - [ -0.00001516449880,  0.02139828793088 ]
    - # atom 7
      - [ -0.00000000968543, -0.00000000000456 ]
      - [ -0.00004063058926,  0.05735320005949 ]
      - [  0.00001515913753, -0.02139828793217 ]
    - # atom 8
      - [ -0.00000000968542, -0.00000000000917 ]
      - [  0.00004063058926, -0.05735320005938 ]
      - [ -0.00001515913753,  0.02139828793195 ]
    - # atom 9
      - [  0.00003519055978, -0.04966932823737 ]
      - [  0.00002031647463, -0.02867660002952 ]
      - [  0.00001516449880, -0.02139828792767 ]
    - # atom 10
      - [ -0.00003518368515,  0.04966932824233 ]
      - [ -0.00002031411463,  0.02867660003124 ]
      - [ -0.00001515377627,  0.02139828793548 ]
  - # 5
    frequency:   10.7717972761
    eigenvector:
    - # atom 1
      - [  0.07395232383137,  0.00000000000000 ]
      - [ -0.03859384191166, -0.00000707515226 ]
      - [ -0.00000000000334,  0.00000000053428 ]
    - # atom 2
      - [ -0.07395232389437,  0.00000023165990 ]
      - [  0.03859384192008,  0.00000794031487 ]
      - [  0.00000000000305,  0.00000000053429 ]
    - # atom 3
      - [ -0.06091930251726,  0.00000185240125 ]
      - [  0.05698481739831,  0.00000681080328 ]
      - [  0.00000000000156,  0.00000000395290 ]
    - # atom 4
      - [  0.06091930257485, -0.00000239104106 ]
      - [ -0.05698481742014, -0.00000759444288 ]
      - [ -0.00000000000178,  0.00000000395290 ]
    - # atom 5
      - [ -0.02852559241937, -0.00002697917833 ]
      - [  0.01961067531623,  0.00001570758200 ]
      - [ -0.03998547796067, -0.00003581486113 ]
    - # atom 6
      - [  0.02852559243092,  0.00002693766933 ]
      - [ -0.01961067530059, -0.00001562811903 ]
      - [  0.03998547795264,  0.00003644242005 ]
    - # atom 7
      - [  0.00157982690514,  0.00000039416183 ]
      - [ -0.30345521706663,  0.00000504463138 ]
      - [ -0.35161038154456,  0.00000571892161 ]
    - # atom 8
      - [ -0.00157982689962, -0.00000009213537 ]
      - [  0.30345521706305, -0.00000502415141 ]
      - [  0.35161038158025, -0.00000594767154 ]
    - # atom 9
      - [ -0.29325615265720, -0.00002251517965 ]
      - [ -0.16799432881105, -0.00001332403125 ]
      - [  0.39159585950657,  0.00003008975020 ]
    - # atom 10
      - [  0.29325615264678,  0.00002261778703 ]
      - [  0.16799432882061,  0.00001308823234 ]
      - [ -0.39159585953349, -0.00003050093781 ]
  - # 6
    frequency:   10.7717972762
    eigenvector:
    - # atom 1
      - [ -0.03859384272092,  0.00000000000000 ]
      - [ -0.07395232229984, -0.00001539018859 ]
      - [ -0.00000000000232,  0.00000000437726 ]
    - # atom 2
      - [  0.03859384257894,  0.00000065226008 ]
      - [  0.07395232232021,  0.00001486348405 ]
      - [  0.00000000000100,  0.00000000437727 ]
    - # atom 3
      - [  0.05698481775813,  0.00000414692418 ]
      - [  0.06091930083633,  0.00001480812705 ]
      - [ -0.00000000000483,  0.00000000195462 ]
    - # atom 4
      - [ -0.05698481763170, -0.00000458163867 ]
      - [ -0.06091930089037, -0.00001416638489 ]
      - [  0.00000000000329,  0.00000000195462 ]
    - # atom 5
      - [ -0.32083658456073, -0.00005451534280 ]
      - [  0.18494235041631,  0.00003153292104 ]
      - [ -0.42909031739209, -0.00007308223398 ]
    - # atom 6
      - [  0.32083658458864,  0.00005439201194 ]
      - [ -0.18494235037886, -0.00003175493171 ]
      - [  0.42909031737665,  0.00007286683429 ]
    - # atom 7
      - [  0.00222930331617,  0.00000038247595 ]
      - [  0.21504777463649,  0.00001056766885 ]
      - [  0.24917360406639,  0.00001206650929 ]
    - # atom 8
      - [ -0.00222930330279, -0.00000059651121 ]
      - [ -0.21504777464398, -0.00001053876945 ]
      - [ -0.24917360398411, -0.00001238929969 ]
    - # atom 9
      - [ -0.13323157846736, -0.00004520716382 ]
      - [ -0.07978820347457, -0.00002648290701 ]
      - [  0.17991671333009,  0.00006100699092 ]
    - # atom 10
      - [  0.13323157844359,  0.00004528719645 ]
      - [  0.07978820349522,  0.00002648431109 ]
      - [ -0.17991671339299, -0.00006048626837 ]
  - # 7
    frequency:   10.9285150387
    eigenvector:
    - # atom 1
      - [ -0.39741538121198,  0.00000000000000 ]
      - [ -0.14774236508246,  0.00004120716320 ]
      - [  0.00000000000033, -0.00000006481863 ]
    - # atom 2
      - [ -0.39741538119423, -0.00000009165138 ]
      - [ -0.14774236508163,  0.00004118300174 ]
      - [  0.00000000000844,  0.00000006481863 ]
    - # atom 3
      - [  0.42326065173024, -0.00001193275127 ]
      - [  0.02484375907741, -0.00003942274755 ]
      - [  0.00000000000114,  0.00000004947464 ]
    - # atom 4
      - [  0.42326065170880, -0.00001211469668 ]
      - [  0.02484375908411, -0.00003937996767 ]
      - [  0.00000000000685, -0.00000004947464 ]
    - # atom 5
      - [  0.06677234202048,  0.00000039465435 ]
      - [  0.07855835089533,  0.00000536204307 ]
      - [ -0.18197711207927,  0.00002489680861 ]
    - # atom 6
      - [  0.06677234204503,  0.00000011656961 ]
      - [  0.07855835088761,  0.00000556739566 ]
      - [ -0.18197711205127,  0.00002437630317 ]
    - # atom 7
      - [ -0.02803123189539,  0.00001303928239 ]
      - [ -0.02719065248248,  0.00000049295529 ]
      - [  0.26678050205764, -0.00000378190970 ]
    - # atom 8
      - [ -0.02803123189344,  0.00001314147244 ]
      - [ -0.02719065256516,  0.00000030074857 ]
      - [  0.26678050196064, -0.00000400549871 ]
    - # atom 9
      - [ -0.07221076827827,  0.00000250673100 ]
      - [  0.10778615258885, -0.00000804143130 ]
      - [ -0.08480338998908, -0.00002111299137 ]
    - # atom 10
      - [ -0.07221076832769,  0.00000206145451 ]
      - [  0.10778615256391, -0.00000832746324 ]
      - [ -0.08480338992137, -0.00002037271201 ]
  - # 8
    frequency:   10.9285150387
    eigenvector:
    - # atom 1
      - [  0.14774237080348,  0.00000000000000 ]
      - [ -0.39741536583530,  0.00011050428058 ]
      - [ -0.00000000000162, -0.00000002446383 ]
    - # atom 2
      - [  0.14774237085525,  0.00000024345002 ]
      - [ -0.39741536582292,  0.00011055558625 ]
      - [  0.00000000002185,  0.00000002446383 ]
    - # atom 3
      - [ -0.02484376904017, -0.00003240166990 ]
      - [  0.42326063869572, -0.00010566415462 ]
      - [  0.00000000000266, -0.00000004849943 ]
    - # atom 4
      - [ -0.02484376910395, -0.00003258758319 ]
      - [  0.42326063870622, -0.00010562692654 ]
      - [  0.00000000001808,  0.00000004849942 ]
    - # atom 5
      - [ -0.02754421735398,  0.00000040738501 ]
      - [ -0.08908544683315,  0.00001472364715 ]
      - [ -0.20298704419638,  0.00006583205441 ]
    - # atom 6
      - [ -0.02754421725344,  0.00000088095797 ]
      - [ -0.08908544687734,  0.00001448015674 ]
      - [ -0.20298704407111,  0.00006648715535 ]
    - # atom 7
      - [ -0.13329321521192,  0.00003512170712 ]
      - [  0.00571812708941,  0.00000153763314 ]
      - [ -0.05610327959937, -0.00001007112866 ]
    - # atom 8
      - [ -0.13329321520743,  0.00003510021681 ]
      - [  0.00571812684372,  0.00000062365791 ]
      - [ -0.05610327988586, -0.00001113433194 ]
    - # atom 9
      - [  0.00168358711990,  0.00000632854112 ]
      - [  0.04989765870905, -0.00002193776568 ]
      - [  0.25909032377132, -0.00005575185508 ]
    - # atom 10
      - [  0.00168358700622,  0.00000600708923 ]
      - [  0.04989765865246, -0.00002207791913 ]
      - [  0.25909032392731, -0.00005536189407 ]
  - # 9
    frequency:   11.2429077725
    eigenvector:
    - # atom 1
      - [  0.00000000484430,  0.00000000000000 ]
      - [  0.00000001315191, -0.00000000001632 ]
      - [  0.00002313009418, -0.30257760715157 ]
    - # atom 2
      - [ -0.00000000484430, -0.00000000000194 ]
      - [ -0.00000001315191, -0.00000000002022 ]
      - [  0.00002310691802, -0.30257760715435 ]
    - # atom 3
      - [  0.00000000484430,  0.00000000000542 ]
      - [ -0.00000001315191,  0.00000000001617 ]
      - [  0.00002310691801, -0.30257760715405 ]
    - # atom 4
      - [ -0.00000000484430,  0.00000000000365 ]
      - [  0.00000001315191,  0.00000000001619 ]
      - [  0.00002313009418, -0.30257760715127 ]
    - # atom 5
      - [ -0.00001279505829,  0.16726905783256 ]
      - [  0.00000737164237, -0.09657283557387 ]
      - [ -0.00001997930505,  0.26139231659457 ]
    - # atom 6
      - [ -0.00001276539723,  0.16726905783796 ]
      - [  0.00000738569351, -0.09657283556738 ]
      - [ -0.00001996416547,  0.26139231659573 ]
    - # atom 7
      - [ -0.00000001600261, -0.00000000000201 ]
      - [ -0.00001475733587,  0.19314567113868 ]
      - [ -0.00001997173526,  0.26139231660820 ]
    - # atom 8
      - [  0.00000001600261,  0.00000000000271 ]
      - [ -0.00001475733587,  0.19314567114057 ]
      - [ -0.00001997173526,  0.26139231660758 ]
    - # atom 9
      - [  0.00001276539723, -0.16726905784137 ]
      - [  0.00000738569351, -0.09657283556836 ]
      - [ -0.00001996416547,  0.26139231661348 ]
    - # atom 10
      - [  0.00001279505829, -0.16726905783860 ]
      - [  0.00000737164236, -0.09657283556652 ]
      - [ -0.00001997930505,  0.26139231661295 ]
  - # 10
    frequency:   11.8937485877
    eigenvector:
    - # atom 1
      - [  0.00000004274029,  0.00000000000000 ]
      - [  0.00000002062430, -0.00000000000215 ]
      - [  0.00000803968089, -0.49497161333800 ]
    - # atom 2
      - [  0.00000004274029,  0.00000000000140 ]
      - [  0.00000002062429,  0.00000000000198 ]
      - [ -0.00000801180020,  0.49497161333758 ]
    - # atom 3
      - [ -0.00000004274029, -0.00000000000134 ]
      - [  0.00000002062430, -0.00000000000119 ]
      - [ -0.00000801180019,  0.49497161333795 ]
    - # atom 4
      - [ -0.00000004274029,  0.00000000000069 ]
      - [  0.00000002062430,  0.00000000000226 ]
      - [  0.00000803968089, -0.49497161333837 ]
    - # atom 5
      - [ -0.00000047476697,  0.02887646655607 ]
      - [ -0.00000083056393,  0.05001550721987 ]
      - [  0.00000001329192, -0.00000000000082 ]
    - # atom 6
      - [  0.00000046167068, -0.02887646655646 ]
      - [  0.00000079139366, -0.05001550722040 ]
      - [  0.00000001329193,  0.00000000000159 ]
    - # atom 7
      - [  0.00000093643766, -0.05775293310582 ]
      - [ -0.00000000223408,  0.00000000000347 ]
      - [ -0.00000004506654,  0.00000000000161 ]
    - # atom 8
      - [ -0.00000093643766,  0.05775293310577 ]
      - [ -0.00000000223408, -0.00000000000327 ]
      - [ -0.00000004506653, -0.00000000000226 ]
    - # atom 9
      - [ -0.00000046167068,  0.02887646655428 ]
      - [  0.00000079139366, -0.05001550721061 ]
      - [  0.00000001329192, -0.00000000000038 ]
    - # atom 10
      - [  0.00000047476697, -0.02887646655433 ]
      - [ -0.00000083056393,  0.05001550720988 ]
      - [  0.00000001329193,  0.00000000000162 ]
  - # 11
    frequency:   12.2382821347
    eigenvector:
    - # atom 1
      - [ -0.32969460511115,  0.00000000000000 ]
      - [ -0.02279144666731,  0.00006997749056 ]
      - [  0.00000000000117, -0.00000000496861 ]
    - # atom 2
      - [  0.32969460512136, -0.00000020046225 ]
      - [  0.02279144661364, -0.00006976110532 ]
      - [ -0.00000000000501, -0.00000000496861 ]
    - # atom 3
      - [ -0.13847146193969, -0.00006116545884 ]
      - [ -0.30007271941425,  0.00003383396148 ]
      - [ -0.00000000000607, -0.00000000162921 ]
    - # atom 4
      - [  0.13847146190952,  0.00006127899068 ]
      - [  0.30007271939408, -0.00003350304278 ]
      - [  0.00000000000440, -0.00000000162921 ]
    - # atom 5
      - [  0.22013760714790,  0.00000225990322 ]
      - [  0.26419704092739, -0.00004645263006 ]
      - [ -0.07224032343109, -0.00003082400717 ]
    - # atom 6
      - [ -0.22013760713317, -0.00000226123409 ]
      - [ -0.26419704089066,  0.00004620213988 ]
      - [  0.07224032341921,  0.00003117069113 ]
    - # atom 7
      - [  0.30883803737258,  0.00004034596616 ]
      - [  0.07746550150859, -0.00002492151329 ]
      - [ -0.09558483882595,  0.00003039613592 ]
    - # atom 8
      - [ -0.30883803735858, -0.00004029548941 ]
      - [ -0.07746550148636,  0.00002476258577 ]
      - [  0.09558483889698, -0.00003090917433 ]
    - # atom 9
      - [  0.10277356543194,  0.00003993802419 ]
      - [  0.09401444531174, -0.00006867841215 ]
      - [  0.16782516226247,  0.00000043961355 ]
    - # atom 10
      - [ -0.10277356542749, -0.00003985696484 ]
      - [ -0.09401444528073,  0.00006841315171 ]
      - [ -0.16782516231596, -0.00000024977450 ]
  - # 12
    frequency:   12.2382821348
    eigenvector:
    - # atom 1
      - [ -0.02279155377343,  0.00000000000000 ]
      - [  0.32969305567125, -0.00101079583900 ]
      - [ -0.00000000000094,  0.00000000014609 ]
    - # atom 2
      - [  0.02279155367471, -0.00000004524442 ]
      - [ -0.32969305488426,  0.00101106759717 ]
      - [  0.00000000000562,  0.00000000014606 ]
    - # atom 3
      - [ -0.30007141151575,  0.00088661163431 ]
      - [  0.13847062317183, -0.00048580167986 ]
      - [ -0.00000000001118, -0.00000000469617 ]
    - # atom 4
      - [  0.30007141201614, -0.00088644033793 ]
      - [ -0.13847062291707,  0.00048590736076 ]
      - [ -0.00000000001505, -0.00000000469615 ]
    - # atom 5
      - [  0.02625430420907, -0.00003373786375 ]
      - [ -0.20102742617960,  0.00066909905949 ]
      - [ -0.15207917357953,  0.00044890104366 ]
    - # atom 6
      - [ -0.02625430447170,  0.00003365164977 ]
      - [  0.20102742565421, -0.00066928760760 ]
      - [  0.15207917372492, -0.00044882975671 ]
    - # atom 7
      - [  0.21298503148461, -0.00058487166131 ]
      - [ -0.11232752961084,  0.00035907237639 ]
      - [  0.13860116511953, -0.00044330465400 ]
    - # atom 8
      - [ -0.21298503171882,  0.00058479846836 ]
      - [  0.11232752930760, -0.00035918197811 ]
      - [ -0.13860116609637,  0.00044295084559 ]
    - # atom 9
      - [  0.19643603155985, -0.00057780477646 ]
      - [ -0.31839103139109,  0.00099137819787 ]
      - [  0.01347800848100, -0.00000558829178 ]
    - # atom 10
      - [ -0.19643603166600,  0.00057777538152 ]
      - [  0.31839103093527, -0.00099154532861 ]
      - [ -0.01347800760922,  0.00000588700902 ]
  - # 13
    frequency:   12.4925543262
    eigenvector:
    - # atom 1
      - [ -0.08126370222133,  0.00000000000000 ]
      - [  0.31336884387898, -0.00008140955063 ]
      - [  0.00000000000423,  0.00000002272418 ]
    - # atom 2
      - [ -0.08126370218865,  0.00000023648618 ]
      - [  0.31336884378657, -0.00008183319269 ]
      - [ -0.00000000000680, -0.00000002272418 ]
    - # atom 3
      - [  0.32247847297588, -0.00008073809300 ]
      - [  0.02848606700911,  0.00001322212057 ]
      - [ -0.00000000000102, -0.00000000429830 ]
    - # atom 4
      - [  0.32247847306978, -0.00008030967600 ]
      - [  0.02848606704178,  0.00001345868282 ]
      - [ -0.00000000000124,  0.00000000429830 ]
    - # atom 5
      - [ -0.11419485112054,  0.00003594229213 ]
      - [ -0.16919960207477,  0.00003539950791 ]
      - [ -0.03233874048567,  0.00003012552531 ]
    - # atom 6
      - [ -0.11419485115443,  0.00003574980443 ]
      - [ -0.16919960208857,  0.00003532305009 ]
      - [ -0.03233874043793,  0.00003033134978 ]
    - # atom 7
      - [ -0.11788493130470,  0.00003948395448 ]
      - [ -0.12870734828661,  0.00002570631111 ]
      - [ -0.29114995930294,  0.00005819192937 ]
    - # atom 8
      - [ -0.11788493137724,  0.00003910670135 ]
      - [ -0.12870734828814,  0.00002570884955 ]
      - [ -0.29114995932979,  0.00005811473170 ]
    - # atom 9
      - [ -0.08097257077302,  0.00002933081176 ]
      - [ -0.14575777199624,  0.00002749448265 ]
      - [  0.32348869978951, -0.00008832513198 ]
    - # atom 10
      - [ -0.08097257082086,  0.00002908986787 ]
      - [ -0.14575777197413,  0.00002760004909 ]
      - [  0.32348869977241, -0.00008843840418 ]
  - # 14
    frequency:   12.4925543262
    eigenvector:
    - # atom 1
      - [  0.31336885445449,  0.00000000000000 ]
      - [  0.08126369949157, -0.00002114627108 ]
      - [  0.00000000000092,  0.00000000352318 ]
    - # atom 2
      - [  0.31336885445618, -0.00000037058405 ]
      - [  0.08126369946493, -0.00002104591593 ]
      - [ -0.00000000000220, -0.00000000352318 ]
    - # atom 3
      - [  0.02848606255563, -0.00002072755806 ]
      - [ -0.32247848305963,  0.00000384364237 ]
      - [ -0.00000000000047,  0.00000002259039 ]
    - # atom 4
      - [  0.02848606258380, -0.00002082613350 ]
      - [ -0.32247848305749,  0.00000347815357 ]
      - [ -0.00000000000065, -0.00000002259039 ]
    - # atom 5
      - [ -0.12657688135963,  0.00000923382760 ]
      - [  0.09450672329578,  0.00000900783990 ]
      - [ -0.35486180528703,  0.00000806004576 ]
    - # atom 6
      - [ -0.12657688136730,  0.00000942108010 ]
      - [  0.09450672329486,  0.00000909268528 ]
      - [ -0.35486180527491,  0.00000801305110 ]
    - # atom 7
      - [ -0.16706913628846,  0.00001011138517 ]
      - [  0.09081664231262,  0.00000656250004 ]
      - [  0.20543707929850,  0.00001490385786 ]
    - # atom 8
      - [ -0.16706913630651,  0.00001037757715 ]
      - [  0.09081664231424,  0.00000656609758 ]
      - [  0.20543707928933,  0.00001479445162 ]
    - # atom 9
      - [ -0.15001871269640,  0.00000757377006 ]
      - [  0.12772900423007,  0.00000703490774 ]
      - [  0.14942472598923, -0.00002297478407 ]
    - # atom 10
      - [ -0.15001871270957,  0.00000769234937 ]
      - [  0.12772900423790,  0.00000699131576 ]
      - [  0.14942472598774, -0.00002279662229 ]
  - # 15
    frequency:   12.8002991858
    eigenvector:
    - # atom 1
      - [ -0.41485138808614,  0.00000000000000 ]
      - [ -0.02903875374194, -0.00013039638103 ]
      - [  0.00000000000448,  0.00000000089708 ]
    - # atom 2
      - [  0.41485138808019, -0.00000006591812 ]
      - [  0.02903875377548,  0.00013031042257 ]
      - [  0.00000000001169,  0.00000000089708 ]
    - # atom 3
      - [  0.40389200691735,  0.00003975855840 ]
      - [ -0.09907658722052,  0.00012418296086 ]
      - [  0.00000000001130,  0.00000000296972 ]
    - # atom 4
      - [ -0.40389200690477, -0.00003981843163 ]
      - [  0.09907658724018, -0.00012408210809 ]
      - [  0.00000000000470,  0.00000000296972 ]
    - # atom 5
      - [ -0.11511840513326,  0.00003461068709 ]
      - [ -0.25677804709003,  0.00002035644476 ]
      - [  0.02160665213601,  0.00001492484836 ]
    - # atom 6
      - [  0.11511840512948, -0.00003455061176 ]
      - [  0.25677804706345, -0.00002035402096 ]
      - [ -0.02160665213084, -0.00001484948190 ]
    - # atom 7
      - [ -0.02634972180218,  0.00009576421330 ]
      - [ -0.06736881918658, -0.00000327220106 ]
      - [ -0.05072966302203, -0.00000247077967 ]
    - # atom 8
      - [  0.02634972179854, -0.00009572182503 ]
      - [  0.06736881917991,  0.00000327022367 ]
      - [  0.05072966296762,  0.00000245575764 ]
    - # atom 9
      - [  0.09329913959640,  0.00004473121712 ]
      - [ -0.23894936796112, -0.00004443448121 ]
      - [  0.02912301086923, -0.00001245807302 ]
    - # atom 10
      - [ -0.09329913959875, -0.00004467024793 ]
      - [  0.23894936793738,  0.00004441783020 ]
      - [ -0.02912301085385,  0.00001238971993 ]
  - # 16
    frequency:   12.8002991859
    eigenvector:
    - # atom 1
      - [ -0.02903904629023,  0.00000000000000 ]
      - [  0.41484720892363,  0.00186209331419 ]
      - [ -0.00000000009988,  0.00000002268995 ]
    - # atom 2
      - [  0.02903904640401, -0.00000002995195 ]
      - [ -0.41484720937316, -0.00186199826770 ]
      - [ -0.00000000010126,  0.00000002268994 ]
    - # atom 3
      - [ -0.09907503215914, -0.00056880481608 ]
      - [ -0.40388811734746, -0.00177299528082 ]
      - [ -0.00000000009648,  0.00000002251266 ]
    - # atom 4
      - [  0.09907503195890,  0.00056884552833 ]
      - [  0.40388811702472,  0.00177307434731 ]
      - [ -0.00000000010187,  0.00000002251264 ]
    - # atom 5
      - [ -0.11861842070706, -0.00049383201676 ]
      - [ -0.08300527908075, -0.00029050229511 ]
      - [ -0.04610247259987, -0.00021266114616 ]
    - # atom 6
      - [  0.11861842077246,  0.00049382161507 ]
      - [  0.08300527945610,  0.00029041832189 ]
      - [  0.04610247246588,  0.00021269599195 ]
    - # atom 7
      - [ -0.30802563469798, -0.00136759641232 ]
      - [  0.00576278445553,  0.00004679442488 ]
      - [  0.00433945762139,  0.00003515775640 ]
    - # atom 8
      - [  0.30802563472621,  0.00136759278639 ]
      - [ -0.00576278435323, -0.00004681754040 ]
      - [ -0.00433945684298, -0.00003533336246 ]
    - # atom 9
      - [ -0.13644662952062, -0.00063862950790 ]
      - [  0.12541021171733,  0.00063483676380 ]
      - [  0.04176301517961,  0.00017745657944 ]
    - # atom 10
      - [  0.13644662953873,  0.00063862955534 ]
      - [ -0.12541021135467, -0.00063491910535 ]
      - [ -0.04176301541060, -0.00017740943975 ]
  - # 17
    frequency:   15.3819842456
    eigenvector:
    - # atom 1
      - [  0.00000002789065,  0.00000000000000 ]
      - [  0.00000001165141,  0.00000000000652 ]
      - [ -0.00001580522774, -0.04298226777166 ]
    - # atom 2
      - [  0.00000002789064, -0.00000000001850 ]
      - [  0.00000001165140, -0.00000000001320 ]
      - [  0.00001591231211,  0.04298226773103 ]
    - # atom 3
      - [  0.00000002789065, -0.00000000000274 ]
      - [ -0.00000001165141, -0.00000000000284 ]
      - [ -0.00001591231211, -0.04298226772953 ]
    - # atom 4
      - [  0.00000002789064, -0.00000000001722 ]
      - [ -0.00000001165140,  0.00000000001420 ]
      - [  0.00001580522775,  0.04298226777017 ]
    - # atom 5
      - [  0.00010663379924,  0.28902057369985 ]
      - [ -0.00006157189018, -0.16686610603291 ]
      - [  0.00008581476703,  0.23250334273315 ]
    - # atom 6
      - [ -0.00010664069847, -0.28902057370060 ]
      - [  0.00006156219849,  0.16686610603076 ]
      - [ -0.00008575445037, -0.23250334275540 ]
    - # atom 7
      - [ -0.00000006338176,  0.00000000002834 ]
      - [  0.00012313408867,  0.33373221205999 ]
      - [  0.00008578460870,  0.23250334274022 ]
    - # atom 8
      - [ -0.00000006338177,  0.00000000001819 ]
      - [ -0.00012313408867, -0.33373221205923 ]
      - [ -0.00008578460869, -0.23250334273461 ]
    - # atom 9
      - [ -0.00010664069848, -0.28902057370696 ]
      - [ -0.00006156219849, -0.16686610603017 ]
      - [  0.00008575445036,  0.23250334274186 ]
    - # atom 10
      - [  0.00010663379925,  0.28902057371029 ]
      - [  0.00006157189018,  0.16686610602677 ]
      - [ -0.00008581476702, -0.23250334272522 ]
  - # 18
    frequency:   16.2066718477
    eigenvector:
    - # atom 1
      - [  0.23235711464328,  0.00000000000000 ]
      - [  0.12073937030033, -0.00000185201817 ]
      - [ -0.00000000001055,  0.00000000682686 ]
    - # atom 2
      - [  0.23235711464329, -0.00000002393492 ]
      - [  0.12073937029785, -0.00000171163896 ]
      - [ -0.00000000001115, -0.00000000682686 ]
    - # atom 3
      - [  0.13359677985282,  0.00000087873546 ]
      - [  0.22521040091124, -0.00000157305783 ]
      - [ -0.00000000000529, -0.00000000722441 ]
    - # atom 4
      - [  0.13359677985006,  0.00000098228987 ]
      - [  0.22521040090940, -0.00000146615419 ]
      - [ -0.00000000000527,  0.00000000722441 ]
    - # atom 5
      - [ -0.17833879985284,  0.00000013519292 ]
      - [ -0.23372110091579,  0.00000157065378 ]
      - [  0.10386885674412,  0.00000174772014 ]
    - # atom 6
      - [ -0.17833879985052,  0.00000020855530 ]
      - [ -0.23372110091949,  0.00000157954154 ]
      - [  0.10386885674930,  0.00000178243927 ]
    - # atom 7
      - [ -0.22111240639796, -0.00000058199025 ]
      - [ -0.09032726754228,  0.00000083303378 ]
      - [  0.24962338657673, -0.00000239571838 ]