64   
2    

1    
  0.0100000000000000   0.0000000000000000   0.0000000000000000
  -0.0681736300    0.0000000000   -0.0000000000
   0.0018692100    0.0000000000    0.0000000000
  -0.0004411300    0.0000000000   -0.0000000000
   0.0009178800    0.0000000000    0.0000000000
  -0.0004411300    0.0000000000   -0.0000000000
   0.0009178800    0.0000000000    0.0000000000
  -0.0023141800    0.0000000000   -0.0000000000
   0.0005443200    0.0000000000   -0.0000000000
   0.0027248900    0.0029388300   -0.0019982400
   0.0027142300   -0.0029238800   -0.0020082400
   0.0027248900   -0.0029388300    0.0019982400
   0.0027142300    0.0029238800    0.0020082400
   0.0003473700   -0.0002680600    0.0004181400
   0.0003467900    0.0002697100    0.0004191700
   0.0003473700    0.0002680600   -0.0004181400
   0.0003467900   -0.0002697100   -0.0004191700
   0.0027248900   -0.0019982400    0.0029388300
   0.0027142300   -0.0020082400   -0.0029238800
   0.0003473700    0.0004181400   -0.0002680600
   0.0003467900    0.0004191700    0.0002697100
   0.0027248900    0.0019982400   -0.0029388300
   0.0027142300    0.0020082400    0.0029238800
   0.0003473700   -0.0004181400    0.0002680600
   0.0003467900   -0.0004191700   -0.0002697100
  -0.0045477900    0.0020090100    0.0020090100
   0.0010208300   -0.0004202300   -0.0004202300
  -0.0045338300    0.0020028200   -0.0020028200
   0.0010287300   -0.0004250700    0.0004250700
  -0.0045338300   -0.0020028200    0.0020028200
   0.0010287300    0.0004250700   -0.0004250700
  -0.0045477900   -0.0020090100   -0.0020090100
   0.0010208300    0.0004202300    0.0004202300
   0.0156343000    0.0118292600    0.0118292600
  -0.0013859400    0.0005765400    0.0005765400
   0.0008586100    0.0000630000   -0.0004506500
  -0.0010118900   -0.0006802700   -0.0000918100
   0.0008586100   -0.0004506500    0.0000630000
  -0.0010118900   -0.0000918100   -0.0006802700
   0.0005751400    0.0010845900    0.0010845900
  -0.0003257900    0.0000350900    0.0000350900
  -0.0009899100   -0.0006716700    0.0000955400
   0.0008890400    0.0000689300    0.0004511500
  -0.0013632200    0.0005886300   -0.0005886300
   0.0154247000    0.0114370900   -0.0114370900
  -0.0003163700    0.0000487300   -0.0000487300
   0.0005914000    0.0010952400   -0.0010952400
  -0.0009899100   -0.0000955400    0.0006716700
   0.0008890400   -0.0004511500   -0.0000689300
  -0.0009899100    0.0000955400   -0.0006716700
   0.0008890400    0.0004511500    0.0000689300
  -0.0003163700   -0.0000487300    0.0000487300
   0.0005914000   -0.0010952400    0.0010952400
  -0.0013632200   -0.0005886300    0.0005886300
   0.0154247000   -0.0114370900    0.0114370900
  -0.0009899100    0.0006716700   -0.0000955400
   0.0008890400   -0.0000689300   -0.0004511500
   0.0005751400   -0.0010845900   -0.0010845900
  -0.0003257900   -0.0000350900   -0.0000350900
   0.0008586100    0.0004506500   -0.0000630000
  -0.0010118900    0.0000918100    0.0006802700
   0.0008586100   -0.0000630000    0.0004506500
  -0.0010118900    0.0006802700    0.0000918100
   0.0156343000   -0.0118292600   -0.0118292600
  -0.0013859400   -0.0005765400   -0.0005765400

33   
  0.0100000000000000   0.0000000000000000   0.0000000000000000
   0.0152865900    0.0114296700    0.0114296700
  -0.0013822900    0.0000488600    0.0000488600
   0.0007946900    0.0005643300   -0.0004416100
  -0.0010362700   -0.0006585200    0.0010882500
   0.0007946900   -0.0004416100    0.0005643300
  -0.0010362700    0.0010882500   -0.0006585200
   0.0005030100   -0.0000955500   -0.0000955500
  -0.0003713900    0.0000449500    0.0000449500
   0.0155403100    0.0118709200   -0.0118709200
  -0.0013803900    0.0000490200   -0.0000490200
   0.0008034300    0.0005639900    0.0004492500
  -0.0010361500   -0.0006580900   -0.0010794700
   0.0008034300   -0.0004492500   -0.0005639900
  -0.0010361500    0.0010794700    0.0006580900
   0.0005145100   -0.0000976000    0.0000976000
  -0.0003724500    0.0000455300   -0.0000455300
   0.0155403100   -0.0118709200    0.0118709200
  -0.0013803900   -0.0000490200    0.0000490200
   0.0008034300   -0.0005639900   -0.0004492500
  -0.0010361500    0.0006580900    0.0010794700
   0.0008034300    0.0004492500    0.0005639900
  -0.0010361500   -0.0010794700   -0.0006580900
   0.0005145100    0.0000976000   -0.0000976000
  -0.0003724500   -0.0000455300    0.0000455300
   0.0152865900   -0.0114296700   -0.0114296700
  -0.0013822900   -0.0000488600   -0.0000488600
   0.0007946900   -0.0005643300    0.0004416100
  -0.0010362700    0.0006585200   -0.0010882500
   0.0007946900    0.0004416100   -0.0005643300
  -0.0010362700   -0.0010882500    0.0006585200
   0.0005030100    0.0000955500    0.0000955500
  -0.0003713900   -0.0000449500   -0.0000449500
  -0.0901172500    0.0000000000    0.0000000000
   0.0009770400    0.0000000000    0.0000000000
  -0.0006131300    0.0000000000    0.0000000000
   0.0019564900    0.0000000000    0.0000000000
  -0.0006131300    0.0000000000    0.0000000000
   0.0019564900    0.0000000000    0.0000000000
  -0.0003236600    0.0000000000    0.0000000000
   0.0002550000    0.0000000000    0.0000000000
   0.0036917600    0.0044071900   -0.0007308400
   0.0036578600   -0.0043524300   -0.0007368800
   0.0036917600   -0.0044071900    0.0007308400
   0.0036578600    0.0043524300    0.0007368800
   0.0000042000    0.0002600700    0.0000361600
   0.0000083700   -0.0002564700    0.0000364900
   0.0000042000   -0.0002600700   -0.0000361600
   0.0000083700    0.0002564700   -0.0000364900
   0.0036917600   -0.0007308400    0.0044071900
   0.0036578600   -0.0007368800   -0.0043524300
   0.0000042000    0.0000361600    0.0002600700
   0.0000083700    0.0000364900   -0.0002564700
   0.0036917600    0.0007308400   -0.0044071900
   0.0036578600    0.0007368800    0.0043524300
   0.0000042000   -0.0000361600   -0.0002600700
   0.0000083700   -0.0000364900    0.0002564700
  -0.0001393100    0.0007197000    0.0007197000
   0.0007078000   -0.0000360000   -0.0000360000
  -0.0001287200    0.0007475200   -0.0007475200
   0.0007076300   -0.0000368000    0.0000368000
  -0.0001287200   -0.0007475200    0.0007475200
   0.0007076300    0.0000368000   -0.0000368000
  -0.0001393100   -0.0007197000   -0.0007197000
   0.0007078000    0.0000360000    0.0000360000
