64   
2    

1    
  0.0100000000000000   0.0000000000000000   0.0000000000000000
  -0.0344807200    0.0000000000    0.0000000000
   0.0073359300    0.0000000000    0.0000000000
  -0.0005968300    0.0000000000    0.0000000000
   0.0006436600    0.0000000000    0.0000000000
  -0.0005968300    0.0000000000    0.0000000000
   0.0006436600    0.0000000000    0.0000000000
  -0.0005356300    0.0000000000    0.0000000000
   0.0005133200    0.0000000000    0.0000000000
  -0.0022461800   -0.0000112600   -0.0000112600
   0.0014164700    0.0000027200    0.0000027200
  -0.0022461800    0.0000112600   -0.0000112600
   0.0014164700   -0.0000027200    0.0000027200
  -0.0022461800   -0.0000112600    0.0000112600
   0.0014164700    0.0000027200   -0.0000027200
  -0.0022461800    0.0000112600    0.0000112600
   0.0014164700   -0.0000027200   -0.0000027200
   0.0020937900    0.0000000000    0.0058861000
   0.0020974300    0.0000000000   -0.0058310200
  -0.0000194600    0.0000000000    0.0000641100
  -0.0000129800    0.0000000000   -0.0000654300
   0.0020937900    0.0000000000   -0.0058861000
   0.0020974300    0.0000000000    0.0058310200
  -0.0000194600    0.0000000000   -0.0000641100
  -0.0000129800    0.0000000000    0.0000654300
   0.0020937900    0.0058861000    0.0000000000
   0.0020974300   -0.0058310200    0.0000000000
   0.0020937900   -0.0058861000    0.0000000000
   0.0020974300    0.0058310200    0.0000000000
  -0.0000194600    0.0000641100    0.0000000000
  -0.0000129800   -0.0000654300    0.0000000000
  -0.0000194600   -0.0000641100    0.0000000000
  -0.0000129800    0.0000654300    0.0000000000
  -0.0002893900   -0.0013609100   -0.0013609100
  -0.0003011100    0.0013518900    0.0013518900
  -0.0002893900    0.0013609100   -0.0013609100
  -0.0003011100   -0.0013518900    0.0013518900
  -0.0002893900   -0.0013609100    0.0013609100
  -0.0003011100    0.0013518900   -0.0013518900
  -0.0002893900    0.0013609100    0.0013609100
  -0.0003011100   -0.0013518900   -0.0013518900
   0.0014649200    0.0000000000    0.0000000000
   0.0006606500    0.0000000000    0.0000000000
   0.0000648400    0.0000000000    0.0000000000
   0.0000517200    0.0000000000    0.0000000000
   0.0000648400    0.0000000000    0.0000000000
   0.0000517200    0.0000000000    0.0000000000
  -0.0000063500    0.0000000000    0.0000000000
  -0.0000110000    0.0000000000    0.0000000000
   0.0063743900   -0.0000106800    0.0000000000
  -0.0028767200   -0.0000063300    0.0000000000
   0.0063743900    0.0000106800    0.0000000000
  -0.0028767200    0.0000063300    0.0000000000
   0.0007401300    0.0000038300    0.0000000000
  -0.0007933400   -0.0000007300    0.0000000000
   0.0007401300   -0.0000038300    0.0000000000
  -0.0007933400    0.0000007300    0.0000000000
   0.0063743900    0.0000000000   -0.0000106800
  -0.0028767200    0.0000000000   -0.0000063300
   0.0007401300    0.0000000000    0.0000038300
  -0.0007933400    0.0000000000   -0.0000007300
   0.0063743900    0.0000000000    0.0000106800
  -0.0028767200    0.0000000000    0.0000063300
   0.0007401300    0.0000000000   -0.0000038300
  -0.0007933400    0.0000000000    0.0000007300

33   
  0.0100000000000000   0.0000000000000000   0.0000000000000000
  -0.0003141800   -0.0013536100   -0.0013536100
  -0.0003015900    0.0013587300    0.0013587300
  -0.0003141800    0.0013536100   -0.0013536100
  -0.0003015900   -0.0013587300    0.0013587300
  -0.0003141800   -0.0013536100    0.0013536100
  -0.0003015900    0.0013587300   -0.0013587300
  -0.0003141800    0.0013536100    0.0013536100
  -0.0003015900   -0.0013587300   -0.0013587300
   0.0006994400    0.0000000000    0.0000000000
   0.0014002300    0.0000000000    0.0000000000
   0.0000420200    0.0000000000    0.0000000000
   0.0000502700    0.0000000000    0.0000000000
   0.0000420200    0.0000000000    0.0000000000
   0.0000502700    0.0000000000    0.0000000000
  -0.0000244800    0.0000000000    0.0000000000
  -0.0000192800    0.0000000000    0.0000000000
   0.0063614700   -0.0000078700    0.0000000000
  -0.0028885400    0.0000042700    0.0000000000
   0.0063614700    0.0000078700    0.0000000000
  -0.0028885400   -0.0000042700    0.0000000000
   0.0007274600    0.0000004200    0.0000000000
  -0.0008062700    0.0000014400    0.0000000000
   0.0007274600   -0.0000004200    0.0000000000
  -0.0008062700   -0.0000014400    0.0000000000
   0.0063614700    0.0000000000   -0.0000078700
  -0.0028885400    0.0000000000    0.0000042700
   0.0007274600    0.0000000000    0.0000004200
  -0.0008062700    0.0000000000    0.0000014400
   0.0063614700    0.0000000000    0.0000078700
  -0.0028885400    0.0000000000   -0.0000042700
   0.0007274600    0.0000000000   -0.0000004200
  -0.0008062700   -0.0000000000   -0.0000014400
  -0.0500681000    0.0000000000    0.0000000000
   0.0045764800    0.0000000000    0.0000000000
  -0.0016063900   -0.0000000000    0.0000000000
   0.0018116200   -0.0000000000    0.0000000000
  -0.0016063900    0.0000000000    0.0000000000
   0.0018116200    0.0000000000    0.0000000000
  -0.0005581600   -0.0000000000    0.0000000000
   0.0005222700   -0.0000000000    0.0000000000
  -0.0026683600    0.0000164900    0.0000164900
   0.0015988600   -0.0000023500   -0.0000023500
  -0.0026683600   -0.0000164900    0.0000164900
   0.0015988600    0.0000023500   -0.0000023500
  -0.0026683600    0.0000164900   -0.0000164900
   0.0015988600   -0.0000023500    0.0000023500
  -0.0026683600   -0.0000164900   -0.0000164900
   0.0015988600    0.0000023500    0.0000023500
   0.0045438500    0.0000000000    0.0064292700
   0.0045709900   -0.0000000000   -0.0065077700
  -0.0000483600   -0.0000000000    0.0005545100
  -0.0000561900    0.0000000000   -0.0005581200
   0.0045438500   -0.0000000000   -0.0064292700
   0.0045709900   -0.0000000000    0.0065077700
  -0.0000483600    0.0000000000   -0.0005545100
  -0.0000561900    0.0000000000    0.0005581200
   0.0045438500    0.0064292700    0.0000000000
   0.0045709900   -0.0065077700    0.0000000000
   0.0045438500   -0.0064292700    0.0000000000
   0.0045709900    0.0065077700    0.0000000000
  -0.0000483600    0.0005545100    0.0000000000
  -0.0000561900   -0.0005581200    0.0000000000
  -0.0000483600   -0.0005545100    0.0000000000
  -0.0000561900    0.0005581200    0.0000000000
