# epsilon and Z* of atoms 1 2
  23.69625800   -0.00000000    0.00000000   -0.00000000   23.69625800    0.00000000   -0.00000000   -0.00000000   23.69625800 
   2.39889500   -0.00000000    0.00000000   -0.00000000    2.39889500    0.00000000    0.00000000   -0.00000000    2.39889500 
  -2.39889500    0.00000000   -0.00000000    0.00000000   -2.39889500   -0.00000000   -0.00000000    0.00000000   -2.39889500 
