natom:   64
displacements:
- atom:    1
  displacement:
    [   0.0100000000000000,  0.0000000000000000,  0.0000000000000000 ]
- atom:   33
  displacement:
    [   0.0100000000000000,  0.0000000000000000,  0.0000000000000000 ]
lattice:
- [    13.269397662631063,     0.000000000000000,     0.000000000000000 ] # a
- [     0.000000000000000,    13.269397662631063,     0.000000000000000 ] # b
- [     0.000000000000000,     0.000000000000000,    13.269397662631063 ] # c
points:
- symbol: In # 1
  coordinates: [  0.000000000000000,  0.000000000000000,  0.000000000000000 ]
  mass: 114.818000
- symbol: In # 2
  coordinates: [  0.500000000000000,  0.000000000000000,  0.000000000000000 ]
  mass: 114.818000
- symbol: In # 3
  coordinates: [  0.000000000000000,  0.500000000000000,  0.000000000000000 ]
  mass: 114.818000
- symbol: In # 4
  coordinates: [  0.500000000000000,  0.500000000000000,  0.000000000000000 ]
  mass: 114.818000
- symbol: In # 5
  coordinates: [  0.000000000000000,  0.000000000000000,  0.500000000000000 ]
  mass: 114.818000
- symbol: In # 6
  coordinates: [  0.500000000000000,  0.000000000000000,  0.500000000000000 ]
  mass: 114.818000
- symbol: In # 7
  coordinates: [  0.000000000000000,  0.500000000000000,  0.500000000000000 ]
  mass: 114.818000
- symbol: In # 8
  coordinates: [  0.500000000000000,  0.500000000000000,  0.500000000000000 ]
  mass: 114.818000
- symbol: In # 9
  coordinates: [  0.000000000000000,  0.250000000000000,  0.250000000000000 ]
  mass: 114.818000
- symbol: In # 10
  coordinates: [  0.500000000000000,  0.250000000000000,  0.250000000000000 ]
  mass: 114.818000
- symbol: In # 11
  coordinates: [  0.000000000000000,  0.750000000000000,  0.250000000000000 ]
  mass: 114.818000
- symbol: In # 12
  coordinates: [  0.500000000000000,  0.750000000000000,  0.250000000000000 ]
  mass: 114.818000
- symbol: In # 13
  coordinates: [  0.000000000000000,  0.250000000000000,  0.750000000000000 ]
  mass: 114.818000
- symbol: In # 14
  coordinates: [  0.500000000000000,  0.250000000000000,  0.750000000000000 ]
  mass: 114.818000
- symbol: In # 15
  coordinates: [  0.000000000000000,  0.750000000000000,  0.750000000000000 ]
  mass: 114.818000
- symbol: In # 16
  coordinates: [  0.500000000000000,  0.750000000000000,  0.750000000000000 ]
  mass: 114.818000
- symbol: In # 17
  coordinates: [  0.250000000000000,  0.000000000000000,  0.250000000000000 ]
  mass: 114.818000
- symbol: In # 18
  coordinates: [  0.750000000000000,  0.000000000000000,  0.250000000000000 ]
  mass: 114.818000
- symbol: In # 19
  coordinates: [  0.250000000000000,  0.500000000000000,  0.250000000000000 ]
  mass: 114.818000
- symbol: In # 20
  coordinates: [  0.750000000000000,  0.500000000000000,  0.250000000000000 ]
  mass: 114.818000
- symbol: In # 21
  coordinates: [  0.250000000000000,  0.000000000000000,  0.750000000000000 ]
  mass: 114.818000
- symbol: In # 22
  coordinates: [  0.750000000000000,  0.000000000000000,  0.750000000000000 ]
  mass: 114.818000
- symbol: In # 23
  coordinates: [  0.250000000000000,  0.500000000000000,  0.750000000000000 ]
  mass: 114.818000
- symbol: In # 24
  coordinates: [  0.750000000000000,  0.500000000000000,  0.750000000000000 ]
  mass: 114.818000
- symbol: In # 25
  coordinates: [  0.250000000000000,  0.250000000000000,  0.000000000000000 ]
  mass: 114.818000
- symbol: In # 26
  coordinates: [  0.750000000000000,  0.250000000000000,  0.000000000000000 ]
  mass: 114.818000
- symbol: In # 27
  coordinates: [  0.250000000000000,  0.750000000000000,  0.000000000000000 ]
  mass: 114.818000
- symbol: In # 28
  coordinates: [  0.750000000000000,  0.750000000000000,  0.000000000000000 ]
  mass: 114.818000
- symbol: In # 29
  coordinates: [  0.250000000000000,  0.250000000000000,  0.500000000000000 ]
  mass: 114.818000
- symbol: In # 30
  coordinates: [  0.750000000000000,  0.250000000000000,  0.500000000000000 ]
  mass: 114.818000
- symbol: In # 31
  coordinates: [  0.250000000000000,  0.750000000000000,  0.500000000000000 ]
  mass: 114.818000
- symbol: In # 32
  coordinates: [  0.750000000000000,  0.750000000000000,  0.500000000000000 ]
  mass: 114.818000
- symbol: Sb # 33
  coordinates: [  0.125000000000000,  0.125000000000000,  0.125000000000000 ]
  mass: 121.760000
- symbol: Sb # 34
  coordinates: [  0.625000000000000,  0.125000000000000,  0.125000000000000 ]
  mass: 121.760000
- symbol: Sb # 35
  coordinates: [  0.125000000000000,  0.625000000000000,  0.125000000000000 ]
  mass: 121.760000
- symbol: Sb # 36
  coordinates: [  0.625000000000000,  0.625000000000000,  0.125000000000000 ]
  mass: 121.760000
- symbol: Sb # 37
  coordinates: [  0.125000000000000,  0.125000000000000,  0.625000000000000 ]
  mass: 121.760000
- symbol: Sb # 38
  coordinates: [  0.625000000000000,  0.125000000000000,  0.625000000000000 ]
  mass: 121.760000
- symbol: Sb # 39
  coordinates: [  0.125000000000000,  0.625000000000000,  0.625000000000000 ]
  mass: 121.760000
- symbol: Sb # 40
  coordinates: [  0.625000000000000,  0.625000000000000,  0.625000000000000 ]
  mass: 121.760000
- symbol: Sb # 41
  coordinates: [  0.375000000000000,  0.375000000000000,  0.125000000000000 ]
  mass: 121.760000
- symbol: Sb # 42
  coordinates: [  0.875000000000000,  0.375000000000000,  0.125000000000000 ]
  mass: 121.760000
- symbol: Sb # 43
  coordinates: [  0.375000000000000,  0.875000000000000,  0.125000000000000 ]
  mass: 121.760000
- symbol: Sb # 44
  coordinates: [  0.875000000000000,  0.875000000000000,  0.125000000000000 ]
  mass: 121.760000
- symbol: Sb # 45
  coordinates: [  0.375000000000000,  0.375000000000000,  0.625000000000000 ]
  mass: 121.760000
- symbol: Sb # 46
  coordinates: [  0.875000000000000,  0.375000000000000,  0.625000000000000 ]
  mass: 121.760000
- symbol: Sb # 47
  coordinates: [  0.375000000000000,  0.875000000000000,  0.625000000000000 ]
  mass: 121.760000
- symbol: Sb # 48
  coordinates: [  0.875000000000000,  0.875000000000000,  0.625000000000000 ]
  mass: 121.760000
- symbol: Sb # 49
  coordinates: [  0.375000000000000,  0.125000000000000,  0.375000000000000 ]
  mass: 121.760000
- symbol: Sb # 50
  coordinates: [  0.875000000000000,  0.125000000000000,  0.375000000000000 ]
  mass: 121.760000
- symbol: Sb # 51
  coordinates: [  0.375000000000000,  0.625000000000000,  0.375000000000000 ]
  mass: 121.760000
- symbol: Sb # 52
  coordinates: [  0.875000000000000,  0.625000000000000,  0.375000000000000 ]
  mass: 121.760000
- symbol: Sb # 53
  coordinates: [  0.375000000000000,  0.125000000000000,  0.875000000000000 ]
  mass: 121.760000
- symbol: Sb # 54
  coordinates: [  0.875000000000000,  0.125000000000000,  0.875000000000000 ]
  mass: 121.760000
- symbol: Sb # 55
  coordinates: [  0.375000000000000,  0.625000000000000,  0.875000000000000 ]
  mass: 121.760000
- symbol: Sb # 56
  coordinates: [  0.875000000000000,  0.625000000000000,  0.875000000000000 ]
  mass: 121.760000
- symbol: Sb # 57
  coordinates: [  0.125000000000000,  0.375000000000000,  0.375000000000000 ]
  mass: 121.760000
- symbol: Sb # 58
  coordinates: [  0.625000000000000,  0.375000000000000,  0.375000000000000 ]
  mass: 121.760000
- symbol: Sb # 59
  coordinates: [  0.125000000000000,  0.875000000000000,  0.375000000000000 ]
  mass: 121.760000
- symbol: Sb # 60
  coordinates: [  0.625000000000000,  0.875000000000000,  0.375000000000000 ]
  mass: 121.760000
- symbol: Sb # 61
  coordinates: [  0.125000000000000,  0.375000000000000,  0.875000000000000 ]
  mass: 121.760000
- symbol: Sb # 62
  coordinates: [  0.625000000000000,  0.375000000000000,  0.875000000000000 ]
  mass: 121.760000
- symbol: Sb # 63
  coordinates: [  0.125000000000000,  0.875000000000000,  0.875000000000000 ]
  mass: 121.760000
- symbol: Sb # 64
  coordinates: [  0.625000000000000,  0.875000000000000,  0.875000000000000 ]
  mass: 121.760000