64   
2    

1    
  0.0100000000000000   0.0000000000000000   0.0000000000000000
  -0.0589670500    0.0000000000    0.0000000000
   0.0004874600    0.0000000000    0.0000000000
   0.0001514300    0.0000000000    0.0000000000
   0.0001453300    0.0000000000    0.0000000000
   0.0001514300    0.0000000000    0.0000000000
   0.0001453300    0.0000000000    0.0000000000
  -0.0028284200    0.0000000000    0.0000000000
   0.0002619400    0.0000000000    0.0000000000
  -0.0031809100    0.0009314700    0.0009314700
   0.0002449900   -0.0001851800   -0.0001851800
  -0.0031733100    0.0009267100   -0.0009267100
   0.0002478300   -0.0001861300    0.0001861300
  -0.0031733100   -0.0009267100    0.0009267100
   0.0002478300    0.0001861300   -0.0001861300
  -0.0031809100   -0.0009314700   -0.0009314700
   0.0002449900    0.0001851800    0.0001851800
   0.0013068600   -0.0009250000    0.0012097000
   0.0012973500   -0.0009328500   -0.0012039500
   0.0002702700    0.0001849600   -0.0005088900
   0.0002682500    0.0001864900    0.0005097800
   0.0013068600    0.0009250000   -0.0012097000
   0.0012973500    0.0009328500    0.0012039500
   0.0002702700   -0.0001849600    0.0005088900
   0.0002682500   -0.0001864900   -0.0005097800
   0.0013068600    0.0012097000   -0.0009250000
   0.0012973500   -0.0012039500   -0.0009328500
   0.0013068600   -0.0012097000    0.0009250000
   0.0012973500    0.0012039500    0.0009328500
   0.0002702700   -0.0005088900    0.0001849600
   0.0002682500    0.0005097800    0.0001864900
   0.0002702700    0.0005088900   -0.0001849600
   0.0002682500   -0.0005097800   -0.0001864900
   0.0152736600    0.0122160600    0.0122160600
  -0.0003468800    0.0002784700    0.0002784700
  -0.0000100800    0.0000572200    0.0001949000
  -0.0003173100   -0.0002678300   -0.0002669800
  -0.0000100800    0.0001949000    0.0000572200
  -0.0003173100   -0.0002669800   -0.0002678300
   0.0008712400    0.0005088800    0.0005088800
  -0.0001772600    0.0001302400    0.0001302400
  -0.0003146900   -0.0002648600    0.0002645100
  -0.0000082300    0.0000554000   -0.0001969500
  -0.0003486300    0.0002786900   -0.0002786900
   0.0151395000    0.0119523400   -0.0119523400
  -0.0001784000    0.0001298700   -0.0001298700
   0.0008696100    0.0005087200   -0.0005087200
  -0.0003146900   -0.0002645100    0.0002648600
  -0.0000082300    0.0001969500   -0.0000554000
  -0.0003146900    0.0002645100   -0.0002648600
  -0.0000082300   -0.0001969500    0.0000554000
  -0.0001784000   -0.0001298700    0.0001298700
   0.0008696100   -0.0005087200    0.0005087200
  -0.0003486300   -0.0002786900    0.0002786900
   0.0151395000   -0.0119523400    0.0119523400
  -0.0003146900    0.0002648600   -0.0002645100
  -0.0000082300   -0.0000554000    0.0001969500
   0.0008712400   -0.0005088800   -0.0005088800
  -0.0001772600   -0.0001302400   -0.0001302400
  -0.0000100800   -0.0001949000   -0.0000572200
  -0.0003173100    0.0002669800    0.0002678300
  -0.0000100800   -0.0000572200   -0.0001949000
  -0.0003173100    0.0002678300    0.0002669800
   0.0152736600   -0.0122160600   -0.0122160600
  -0.0003468800   -0.0002784700   -0.0002784700

33   
  0.0100000000000000   0.0000000000000000   0.0000000000000000
   0.0151343900    0.0119422200    0.0119422200
  -0.0003484900    0.0000569700    0.0000569700
  -0.0000125000    0.0002805000    0.0001977200
  -0.0003166200   -0.0002662200    0.0005103500
  -0.0000125000    0.0001977200    0.0002805000
  -0.0003166200    0.0005103500   -0.0002662200
   0.0008671100   -0.0002668700   -0.0002668700
  -0.0001810700    0.0001305100    0.0001305100
   0.0151343900   -0.0119422200   -0.0119422200
  -0.0003484900   -0.0000569700   -0.0000569700
  -0.0000125000   -0.0002805000   -0.0001977200
  -0.0003166200    0.0002662200   -0.0005103500
  -0.0000125000   -0.0001977200   -0.0002805000
  -0.0003166200   -0.0005103500    0.0002662200
   0.0008671100    0.0002668700    0.0002668700
  -0.0001810700   -0.0001305100   -0.0001305100
   0.0152776100   -0.0122221300    0.0122221300
  -0.0003460900   -0.0000559300    0.0000559300
  -0.0000096400   -0.0002799300    0.0001934100
  -0.0003178900    0.0002673300    0.0005056100
  -0.0000096400   -0.0001934100    0.0002799300
  -0.0003178900   -0.0005056100   -0.0002673300
   0.0008759600    0.0002675100   -0.0002675100
  -0.0001810700   -0.0001319500    0.0001319500
   0.0152776100    0.0122221300   -0.0122221300
  -0.0003460900    0.0000559300   -0.0000559300
  -0.0000096400    0.0002799300   -0.0001934100
  -0.0003178900   -0.0002673300   -0.0005056100
  -0.0000096400    0.0001934100   -0.0002799300
  -0.0003178900    0.0005056100    0.0002673300
   0.0008759600   -0.0002675100    0.0002675100
  -0.0001810700    0.0001319500   -0.0001319500
  -0.0693068500   -0.0000000000    0.0000000000
   0.0001316700   -0.0000000000    0.0000000000
   0.0000401800   -0.0000000000    0.0000000000
   0.0006329000   -0.0000000000    0.0000000000
   0.0000401800   -0.0000000000    0.0000000000
   0.0006329000   -0.0000000000    0.0000000000
  -0.0006935200   -0.0000000000    0.0000000000
   0.0000949800   -0.0000000000    0.0000000000
   0.0011668800    0.0012687400   -0.0010020900
   0.0011541000   -0.0012524500   -0.0010037700
   0.0011668800   -0.0012687400    0.0010020900
   0.0011541000    0.0012524500    0.0010037700
   0.0000763600   -0.0001268300    0.0000519000
   0.0000774500    0.0001286600    0.0000520900
   0.0000763600    0.0001268300   -0.0000519000
   0.0000774500   -0.0001286600   -0.0000520900
   0.0011668800   -0.0010020900    0.0012687400
   0.0011541000   -0.0010037700   -0.0012524500
   0.0000763600    0.0000519000   -0.0001268300
   0.0000774500    0.0000520900    0.0001286600
   0.0011668800    0.0010020900   -0.0012687400
   0.0011541000    0.0010037700    0.0012524500
   0.0000763600   -0.0000519000    0.0001268300
   0.0000774500   -0.0000520900   -0.0001286600
  -0.0004015600    0.0009982500    0.0009982500
   0.0001415400   -0.0000516800   -0.0000516800
  -0.0004019500    0.0010075400   -0.0010075400
   0.0001411300   -0.0000527400    0.0000527400
  -0.0004019500   -0.0010075400    0.0010075400
   0.0001411300    0.0000527400   -0.0000527400
  -0.0004015600   -0.0009982500   -0.0009982500
   0.0001415400    0.0000516800    0.0000516800
