# epsilon and Z* of atoms 1 13
   3.26834500    0.00000000   0.00000000   -0.00000000    3.26834500    0.00000000    0.00000000    0.00000000    3.23371000 
   2.98000000    0.00000000   0.00000000   0.00000000    2.98000000    0.00000000    0.00000000    0.00000000    2.95100000
  -1.93700000   0.00000000    0.00000000   0.00000000   -1.93700000   0.00000000    0.00000000   0.00000000   -1.96700000 
