phonopy:
  version: 2.4.2
  frequency_unit_conversion_factor: 15.633302
  symmetry_tolerance: 1.00000e-05
  configuration:
    eigenvectors: ".TRUE."
    dim: "2           2           2"
    primitive_axes: "AUTO"
    nac: ".FALSE."
    qpoints: "3.28e-8 3.28e-8 9.11e-9 1.12e-8 1.12e-8 -2.24e-8"

physical_unit:
  atomic_mass: "AMU"
  length: "Angstrom"
  force_constants: "eV/Angstrom^2"

supercell_matrix:
- [   2,   0,   0 ]
- [   0,   2,   0 ]
- [   0,   0,   2 ]

space_group:
  type: "R-3c"
  number: 167
  Hall_symbol: "-R 3 2\"c"

primitive_matrix:
- [  0.666666666666667, -0.333333333333333, -0.333333333333333 ]
- [  0.333333333333333,  0.333333333333333, -0.666666666666667 ]
- [  0.333333333333333,  0.333333333333333,  0.333333333333333 ]

primitive_cell:
  lattice:
  - [     2.402669998681366,     1.387182170506847,     4.371615655014538 ] # a
  - [    -2.402669998647355,     1.387182170506261,     4.371615655014538 ] # b
  - [    -0.000000000034010,    -2.774364341013108,     4.371615655014538 ] # c
  points:
  - symbol: Al # 1
    coordinates: [  0.352152732221005,  0.352152732221005,  0.352152732221005 ]
    mass: 26.981539
  - symbol: Al # 2
    coordinates: [  0.647847238778996,  0.647847238778997,  0.647847238778996 ]
    mass: 26.981539
  - symbol: Al # 3
    coordinates: [  0.147847267778995,  0.147847267778995,  0.147847267778995 ]
    mass: 26.981539
  - symbol: Al # 4
    coordinates: [  0.852152761221004,  0.852152761221004,  0.852152761221004 ]
    mass: 26.981539
  - symbol: O  # 5
    coordinates: [  0.556171468018377,  0.250000000000000,  0.943828531981624 ]
    mass: 15.999400
  - symbol: O  # 6
    coordinates: [  0.443828531981624,  0.750000000000000,  0.056171468018377 ]
    mass: 15.999400
  - symbol: O  # 7
    coordinates: [  0.943828531981624,  0.556171468018376,  0.250000000000000 ]
    mass: 15.999400
  - symbol: O  # 8
    coordinates: [  0.056171468018376,  0.443828531981624,  0.750000000000000 ]
    mass: 15.999400
  - symbol: O  # 9
    coordinates: [  0.250000000000000,  0.943828531981624,  0.556171468018376 ]
    mass: 15.999400
  - symbol: O  # 10
    coordinates: [  0.750000000000000,  0.056171468018377,  0.443828531981624 ]
    mass: 15.999400
  reciprocal_lattice: # without 2pi
  - [     0.208101820174187,     0.120147641893542,     0.076249460071124 ] # a*
  - [    -0.208101820174216,     0.120147641898644,     0.076249460071124 ] # b*
  - [     0.000000000000029,    -0.240295283792186,     0.076249460071124 ] # c*

unit_cell:
  lattice:
  - [     4.805339997328722,     0.000000000000586,    -0.000000000000000 ] # a
  - [    -2.402669998613345,     4.161546511519369,    -0.000000000000000 ] # b
  - [     0.000000000000000,    -0.000000000000000,    13.114846965043617 ] # c
  points:
  - symbol: Al # 1
    coordinates: [ -0.000000000000000, -0.000000000000000,  0.352152732221005 ]
    mass: 26.981539
    reduced_to: 1
  - symbol: Al # 2
    coordinates: [ -0.000000000000000, -0.000000000000000,  0.647847238778996 ]
    mass: 26.981539
    reduced_to: 2
  - symbol: Al # 3
    coordinates: [ -0.000000000000000, -0.000000000000000,  0.147847267778995 ]
    mass: 26.981539
    reduced_to: 3
  - symbol: Al # 4
    coordinates: [ -0.000000000000000, -0.000000000000000,  0.852152761221004 ]
    mass: 26.981539
    reduced_to: 4
  - symbol: Al # 5
    coordinates: [  0.666666687000003,  0.333333343000000,  0.685486075221005 ]
    mass: 26.981539
    reduced_to: 1
  - symbol: Al # 6
    coordinates: [  0.666666687000003,  0.333333343000000,  0.981180611778998 ]
    mass: 26.981539
    reduced_to: 2
  - symbol: Al # 7
    coordinates: [  0.666666687000003,  0.333333343000000,  0.481180611778998 ]
    mass: 26.981539
    reduced_to: 3
  - symbol: Al # 8
    coordinates: [  0.666666687000003,  0.333333343000000,  0.185486060221007 ]
    mass: 26.981539
    reduced_to: 4
  - symbol: Al # 9
    coordinates: [  0.333333343000000,  0.666666687000003,  0.018819398221003 ]
    mass: 26.981539
    reduced_to: 1
  - symbol: Al # 10
    coordinates: [  0.333333343000000,  0.666666687000003,  0.314513924778995 ]
    mass: 26.981539
    reduced_to: 2
  - symbol: Al # 11
    coordinates: [  0.333333343000000,  0.666666687000003,  0.814513924778995 ]
    mass: 26.981539
    reduced_to: 3
  - symbol: Al # 12
    coordinates: [  0.333333343000000,  0.666666687000003,  0.518819388221002 ]
    mass: 26.981539
    reduced_to: 4
  - symbol: O  # 13
    coordinates: [  0.306171468018377,  0.306171468018377,  0.250000000000000 ]
    mass: 15.999400
    reduced_to: 13
  - symbol: O  # 14
    coordinates: [  0.693828531981624,  0.693828531981624,  0.750000000000000 ]
    mass: 15.999400
    reduced_to: 14
  - symbol: O  # 15
    coordinates: [  0.693828531981624, -0.000000000000000,  0.250000000000000 ]
    mass: 15.999400
    reduced_to: 15
  - symbol: O  # 16
    coordinates: [  0.306171468018377,  0.000000000000000,  0.750000000000000 ]
    mass: 15.999400
    reduced_to: 16
  - symbol: O  # 17
    coordinates: [ -0.000000000000000,  0.693828531981624,  0.250000000000000 ]
    mass: 15.999400
    reduced_to: 17
  - symbol: O  # 18
    coordinates: [  0.000000000000000,  0.306171468018377,  0.750000000000000 ]
    mass: 15.999400
    reduced_to: 18
  - symbol: O  # 19
    coordinates: [  0.972838154018376,  0.639504781018374,  0.583333312999997 ]
    mass: 15.999400
    reduced_to: 13
  - symbol: O  # 20
    coordinates: [  0.360495188981624,  0.027161865981626,  0.083333336000003 ]
    mass: 15.999400
    reduced_to: 14
  - symbol: O  # 21
    coordinates: [  0.360495188981624,  0.333333343000000,  0.583333312999997 ]
    mass: 15.999400
    reduced_to: 15
  - symbol: O  # 22
    coordinates: [  0.972838154018376,  0.333333343000000,  0.083333336000003 ]
    mass: 15.999400
    reduced_to: 16
  - symbol: O  # 23
    coordinates: [  0.666666687000003,  0.027161865981626,  0.583333312999997 ]
    mass: 15.999400
    reduced_to: 17
  - symbol: O  # 24
    coordinates: [  0.666666687000003,  0.639504781018374,  0.083333336000003 ]
    mass: 15.999400
    reduced_to: 18
  - symbol: O  # 25
    coordinates: [  0.639504781018374,  0.972838154018376,  0.916666687000003 ]
    mass: 15.999400
    reduced_to: 13
  - symbol: O  # 26
    coordinates: [  0.027161865981626,  0.360495188981624,  0.416666657000000 ]
    mass: 15.999400
    reduced_to: 14
  - symbol: O  # 27
    coordinates: [  0.027161865981626,  0.666666687000003,  0.916666687000003 ]
    mass: 15.999400
    reduced_to: 15
  - symbol: O  # 28
    coordinates: [  0.639504781018374,  0.666666687000003,  0.416666657000000 ]
    mass: 15.999400
    reduced_to: 16
  - symbol: O  # 29
    coordinates: [  0.333333343000000,  0.360495188981624,  0.916666687000003 ]
    mass: 15.999400
    reduced_to: 17
  - symbol: O  # 30
    coordinates: [  0.333333343000000,  0.972838154018376,  0.416666657000000 ]
    mass: 15.999400
    reduced_to: 18

supercell:
  lattice:
  - [     9.610679994657444,     0.000000000001173,     0.000000000000000 ] # a
  - [    -4.805339997226691,     8.323093023038737,     0.000000000000000 ] # b
  - [     0.000000000000000,     0.000000000000000,    26.229693930087233 ] # c
  points:
  - symbol: Al # 1
    coordinates: [  0.000000000000000,  0.000000000000000,  0.176076366110503 ]
    mass: 26.981539
    reduced_to: 1
  - symbol: Al # 2
    coordinates: [  0.500000000000000,  0.000000000000000,  0.176076366110503 ]
    mass: 26.981539
    reduced_to: 1
  - symbol: Al # 3
    coordinates: [  0.000000000000000,  0.500000000000000,  0.176076366110503 ]
    mass: 26.981539
    reduced_to: 1
  - symbol: Al # 4
    coordinates: [  0.500000000000000,  0.500000000000000,  0.176076366110503 ]
    mass: 26.981539
    reduced_to: 1
  - symbol: Al # 5
    coordinates: [  0.000000000000000,  0.000000000000000,  0.676076366110502 ]
    mass: 26.981539
    reduced_to: 1
  - symbol: Al # 6
    coordinates: [  0.500000000000000,  0.000000000000000,  0.676076366110502 ]
    mass: 26.981539
    reduced_to: 1
  - symbol: Al # 7
    coordinates: [  0.000000000000000,  0.500000000000000,  0.676076366110502 ]
    mass: 26.981539
    reduced_to: 1
  - symbol: Al # 8
    coordinates: [  0.500000000000000,  0.500000000000000,  0.676076366110502 ]
    mass: 26.981539
    reduced_to: 1
  - symbol: Al # 9
    coordinates: [  0.000000000000000,  0.000000000000000,  0.323923619389498 ]
    mass: 26.981539
    reduced_to: 9
  - symbol: Al # 10
    coordinates: [  0.500000000000000,  0.000000000000000,  0.323923619389498 ]
    mass: 26.981539
    reduced_to: 9
  - symbol: Al # 11
    coordinates: [  0.000000000000000,  0.500000000000000,  0.323923619389498 ]
    mass: 26.981539
    reduced_to: 9
  - symbol: Al # 12
    coordinates: [  0.500000000000000,  0.500000000000000,  0.323923619389498 ]
    mass: 26.981539
    reduced_to: 9
  - symbol: Al # 13
    coordinates: [  0.000000000000000,  0.000000000000000,  0.823923619389498 ]
    mass: 26.981539
    reduced_to: 9
  - symbol: Al # 14
    coordinates: [  0.500000000000000,  0.000000000000000,  0.823923619389498 ]
    mass: 26.981539
    reduced_to: 9
  - symbol: Al # 15
    coordinates: [  0.000000000000000,  0.500000000000000,  0.823923619389498 ]
    mass: 26.981539
    reduced_to: 9
  - symbol: Al # 16
    coordinates: [  0.500000000000000,  0.500000000000000,  0.823923619389498 ]
    mass: 26.981539
    reduced_to: 9
  - symbol: Al # 17
    coordinates: [  0.000000000000000,  0.000000000000000,  0.073923633889498 ]
    mass: 26.981539
    reduced_to: 17
  - symbol: Al # 18
    coordinates: [  0.500000000000000,  0.000000000000000,  0.073923633889498 ]
    mass: 26.981539
    reduced_to: 17
  - symbol: Al # 19
    coordinates: [  0.000000000000000,  0.500000000000000,  0.073923633889498 ]
    mass: 26.981539
    reduced_to: 17
  - symbol: Al # 20
    coordinates: [  0.500000000000000,  0.500000000000000,  0.073923633889498 ]
    mass: 26.981539
    reduced_to: 17
  - symbol: Al # 21
    coordinates: [  0.000000000000000,  0.000000000000000,  0.573923633889498 ]
    mass: 26.981539
    reduced_to: 17
  - symbol: Al # 22
    coordinates: [  0.500000000000000,  0.000000000000000,  0.573923633889498 ]
    mass: 26.981539
    reduced_to: 17
  - symbol: Al # 23
    coordinates: [  0.000000000000000,  0.500000000000000,  0.573923633889498 ]
    mass: 26.981539
    reduced_to: 17
  - symbol: Al # 24
    coordinates: [  0.500000000000000,  0.500000000000000,  0.573923633889498 ]
    mass: 26.981539
    reduced_to: 17
  - symbol: Al # 25
    coordinates: [  0.000000000000000,  0.000000000000000,  0.426076380610502 ]
    mass: 26.981539
    reduced_to: 25
  - symbol: Al # 26
    coordinates: [  0.500000000000000,  0.000000000000000,  0.426076380610502 ]
    mass: 26.981539
    reduced_to: 25
  - symbol: Al # 27
    coordinates: [  0.000000000000000,  0.500000000000000,  0.426076380610502 ]
    mass: 26.981539
    reduced_to: 25
  - symbol: Al # 28
    coordinates: [  0.500000000000000,  0.500000000000000,  0.426076380610502 ]
    mass: 26.981539
    reduced_to: 25
  - symbol: Al # 29
    coordinates: [  0.000000000000000,  0.000000000000000,  0.926076380610502 ]
    mass: 26.981539
    reduced_to: 25
  - symbol: Al # 30
    coordinates: [  0.500000000000000,  0.000000000000000,  0.926076380610502 ]
    mass: 26.981539
    reduced_to: 25
  - symbol: Al # 31
    coordinates: [  0.000000000000000,  0.500000000000000,  0.926076380610502 ]
    mass: 26.981539
    reduced_to: 25
  - symbol: Al # 32
    coordinates: [  0.500000000000000,  0.500000000000000,  0.926076380610502 ]
    mass: 26.981539
    reduced_to: 25
  - symbol: Al # 33
    coordinates: [  0.333333343500001,  0.166666671500000,  0.342743037610502 ]
    mass: 26.981539
    reduced_to: 1
  - symbol: Al # 34
    coordinates: [  0.833333343500001,  0.166666671500000,  0.342743037610502 ]
    mass: 26.981539
    reduced_to: 1
  - symbol: Al # 35
    coordinates: [  0.333333343500001,  0.666666671500000,  0.342743037610502 ]
    mass: 26.981539
    reduced_to: 1
  - symbol: Al # 36
    coordinates: [  0.833333343500001,  0.666666671500000,  0.342743037610502 ]
    mass: 26.981539
    reduced_to: 1
  - symbol: Al # 37
    coordinates: [  0.333333343500001,  0.166666671500000,  0.842743037610502 ]
    mass: 26.981539
    reduced_to: 1
  - symbol: Al # 38
    coordinates: [  0.833333343500001,  0.166666671500000,  0.842743037610502 ]
    mass: 26.981539
    reduced_to: 1
  - symbol: Al # 39
    coordinates: [  0.333333343500001,  0.666666671500000,  0.842743037610502 ]
    mass: 26.981539
    reduced_to: 1
  - symbol: Al # 40
    coordinates: [  0.833333343500001,  0.666666671500000,  0.842743037610502 ]
    mass: 26.981539
    reduced_to: 1
  - symbol: Al # 41
    coordinates: [  0.333333343500001,  0.166666671500000,  0.490590305889499 ]
    mass: 26.981539
    reduced_to: 9
  - symbol: Al # 42
    coordinates: [  0.833333343500001,  0.166666671500000,  0.490590305889499 ]
    mass: 26.981539
    reduced_to: 9
  - symbol: Al # 43
    coordinates: [  0.333333343500001,  0.666666671500000,  0.490590305889499 ]
    mass: 26.981539
    reduced_to: 9
  - symbol: Al # 44
    coordinates: [  0.833333343500001,  0.666666671500000,  0.490590305889499 ]
    mass: 26.981539
    reduced_to: 9
  - symbol: Al # 45
    coordinates: [  0.333333343500001,  0.166666671500000,  0.990590305889499 ]
    mass: 26.981539
    reduced_to: 9
  - symbol: Al # 46
    coordinates: [  0.833333343500001,  0.166666671500000,  0.990590305889499 ]
    mass: 26.981539
    reduced_to: 9
  - symbol: Al # 47
    coordinates: [  0.333333343500001,  0.666666671500000,  0.990590305889499 ]
    mass: 26.981539
    reduced_to: 9
  - symbol: Al # 48
    coordinates: [  0.833333343500001,  0.666666671500000,  0.990590305889499 ]
    mass: 26.981539
    reduced_to: 9
  - symbol: Al # 49
    coordinates: [  0.333333343500001,  0.166666671500000,  0.240590305889499 ]
    mass: 26.981539
    reduced_to: 17
  - symbol: Al # 50
    coordinates: [  0.833333343500001,  0.166666671500000,  0.240590305889499 ]
    mass: 26.981539
    reduced_to: 17
  - symbol: Al # 51
    coordinates: [  0.333333343500001,  0.666666671500000,  0.240590305889499 ]
    mass: 26.981539
    reduced_to: 17
  - symbol: Al # 52
    coordinates: [  0.833333343500001,  0.666666671500000,  0.240590305889499 ]
    mass: 26.981539
    reduced_to: 17
  - symbol: Al # 53
    coordinates: [  0.333333343500001,  0.166666671500000,  0.740590305889499 ]
    mass: 26.981539
    reduced_to: 17
  - symbol: Al # 54
    coordinates: [  0.833333343500001,  0.166666671500000,  0.740590305889499 ]
    mass: 26.981539
    reduced_to: 17
  - symbol: Al # 55
    coordinates: [  0.333333343500001,  0.666666671500000,  0.740590305889499 ]
    mass: 26.981539
    reduced_to: 17
  - symbol: Al # 56
    coordinates: [  0.833333343500001,  0.666666671500000,  0.740590305889499 ]
    mass: 26.981539
    reduced_to: 17
  - symbol: Al # 57
    coordinates: [  0.333333343500001,  0.166666671500000,  0.092743030110503 ]
    mass: 26.981539
    reduced_to: 25
  - symbol: Al # 58
    coordinates: [  0.833333343500001,  0.166666671500000,  0.092743030110503 ]
    mass: 26.981539
    reduced_to: 25
  - symbol: Al # 59
    coordinates: [  0.333333343500001,  0.666666671500000,  0.092743030110503 ]
    mass: 26.981539
    reduced_to: 25
  - symbol: Al # 60
    coordinates: [  0.833333343500001,  0.666666671500000,  0.092743030110503 ]
    mass: 26.981539
    reduced_to: 25
  - symbol: Al # 61
    coordinates: [  0.333333343500001,  0.166666671500000,  0.592743030110503 ]
    mass: 26.981539
    reduced_to: 25
  - symbol: Al # 62
    coordinates: [  0.833333343500001,  0.166666671500000,  0.592743030110503 ]
    mass: 26.981539
    reduced_to: 25
  - symbol: Al # 63
    coordinates: [  0.333333343500001,  0.666666671500000,  0.592743030110503 ]
    mass: 26.981539
    reduced_to: 25
  - symbol: Al # 64
    coordinates: [  0.833333343500001,  0.666666671500000,  0.592743030110503 ]
    mass: 26.981539
    reduced_to: 25
  - symbol: Al # 65
    coordinates: [  0.166666671500000,  0.333333343500001,  0.009409699110501 ]
    mass: 26.981539
    reduced_to: 1
  - symbol: Al # 66
    coordinates: [  0.666666671500000,  0.333333343500001,  0.009409699110501 ]
    mass: 26.981539
    reduced_to: 1
  - symbol: Al # 67
    coordinates: [  0.166666671500000,  0.833333343500001,  0.009409699110501 ]
    mass: 26.981539
    reduced_to: 1
  - symbol: Al # 68
    coordinates: [  0.666666671500000,  0.833333343500001,  0.009409699110501 ]
    mass: 26.981539
    reduced_to: 1
  - symbol: Al # 69
    coordinates: [  0.166666671500000,  0.333333343500001,  0.509409699110501 ]
    mass: 26.981539
    reduced_to: 1
  - symbol: Al # 70
    coordinates: [  0.666666671500000,  0.333333343500001,  0.509409699110501 ]
    mass: 26.981539
    reduced_to: 1
  - symbol: Al # 71
    coordinates: [  0.166666671500000,  0.833333343500001,  0.509409699110501 ]
    mass: 26.981539
    reduced_to: 1
  - symbol: Al # 72
    coordinates: [  0.666666671500000,  0.833333343500001,  0.509409699110501 ]
    mass: 26.981539
    reduced_to: 1
  - symbol: Al # 73
    coordinates: [  0.166666671500000,  0.333333343500001,  0.157256962389498 ]
    mass: 26.981539
    reduced_to: 9
  - symbol: Al # 74
    coordinates: [  0.666666671500000,  0.333333343500001,  0.157256962389498 ]
    mass: 26.981539
    reduced_to: 9
  - symbol: Al # 75
    coordinates: [  0.166666671500000,  0.833333343500001,  0.157256962389498 ]
    mass: 26.981539
    reduced_to: 9
  - symbol: Al # 76
    coordinates: [  0.666666671500000,  0.833333343500001,  0.157256962389498 ]
    mass: 26.981539
    reduced_to: 9
  - symbol: Al # 77
    coordinates: [  0.166666671500000,  0.333333343500001,  0.657256962389498 ]
    mass: 26.981539
    reduced_to: 9
  - symbol: Al # 78
    coordinates: [  0.666666671500000,  0.333333343500001,  0.657256962389498 ]
    mass: 26.981539
    reduced_to: 9
  - symbol: Al # 79
    coordinates: [  0.166666671500000,  0.833333343500001,  0.657256962389498 ]
    mass: 26.981539
    reduced_to: 9
  - symbol: Al # 80
    coordinates: [  0.666666671500000,  0.833333343500001,  0.657256962389498 ]
    mass: 26.981539
    reduced_to: 9
  - symbol: Al # 81
    coordinates: [  0.166666671500000,  0.333333343500001,  0.407256962389498 ]
    mass: 26.981539
    reduced_to: 17
  - symbol: Al # 82
    coordinates: [  0.666666671500000,  0.333333343500001,  0.407256962389498 ]
    mass: 26.981539
    reduced_to: 17
  - symbol: Al # 83
    coordinates: [  0.166666671500000,  0.833333343500001,  0.407256962389498 ]
    mass: 26.981539
    reduced_to: 17
  - symbol: Al # 84
    coordinates: [  0.666666671500000,  0.833333343500001,  0.407256962389498 ]
    mass: 26.981539
    reduced_to: 17
  - symbol: Al # 85
    coordinates: [  0.166666671500000,  0.333333343500001,  0.907256962389498 ]
    mass: 26.981539
    reduced_to: 17
  - symbol: Al # 86
    coordinates: [  0.666666671500000,  0.333333343500001,  0.907256962389498 ]
    mass: 26.981539
    reduced_to: 17
  - symbol: Al # 87
    coordinates: [  0.166666671500000,  0.833333343500001,  0.907256962389498 ]
    mass: 26.981539
    reduced_to: 17
  - symbol: Al # 88
    coordinates: [  0.666666671500000,  0.833333343500001,  0.907256962389498 ]
    mass: 26.981539
    reduced_to: 17
  - symbol: Al # 89
    coordinates: [  0.166666671500000,  0.333333343500001,  0.259409694110501 ]
    mass: 26.981539
    reduced_to: 25
  - symbol: Al # 90
    coordinates: [  0.666666671500000,  0.333333343500001,  0.259409694110501 ]
    mass: 26.981539
    reduced_to: 25
  - symbol: Al # 91
    coordinates: [  0.166666671500000,  0.833333343500001,  0.259409694110501 ]
    mass: 26.981539
    reduced_to: 25
  - symbol: Al # 92
    coordinates: [  0.666666671500000,  0.833333343500001,  0.259409694110501 ]
    mass: 26.981539
    reduced_to: 25
  - symbol: Al # 93
    coordinates: [  0.166666671500000,  0.333333343500001,  0.759409694110501 ]
    mass: 26.981539
    reduced_to: 25
  - symbol: Al # 94
    coordinates: [  0.666666671500000,  0.333333343500001,  0.759409694110501 ]
    mass: 26.981539
    reduced_to: 25
  - symbol: Al # 95
    coordinates: [  0.166666671500000,  0.833333343500001,  0.759409694110501 ]
    mass: 26.981539
    reduced_to: 25
  - symbol: Al # 96
    coordinates: [  0.666666671500000,  0.833333343500001,  0.759409694110501 ]
    mass: 26.981539
    reduced_to: 25
  - symbol: O  # 97
    coordinates: [  0.153085734009188,  0.153085734009188,  0.125000000000000 ]
    mass: 15.999400
    reduced_to: 97
  - symbol: O  # 98
    coordinates: [  0.653085734009188,  0.153085734009188,  0.125000000000000 ]
    mass: 15.999400
    reduced_to: 97
  - symbol: O  # 99
    coordinates: [  0.153085734009188,  0.653085734009188,  0.125000000000000 ]
    mass: 15.999400
    reduced_to: 97
  - symbol: O  # 100
    coordinates: [  0.653085734009188,  0.653085734009188,  0.125000000000000 ]
    mass: 15.999400
    reduced_to: 97
  - symbol: O  # 101
    coordinates: [  0.153085734009188,  0.153085734009188,  0.625000000000000 ]
    mass: 15.999400
    reduced_to: 97
  - symbol: O  # 102
    coordinates: [  0.653085734009188,  0.153085734009188,  0.625000000000000 ]
    mass: 15.999400
    reduced_to: 97
  - symbol: O  # 103
    coordinates: [  0.153085734009188,  0.653085734009188,  0.625000000000000 ]
    mass: 15.999400
    reduced_to: 97
  - symbol: O  # 104
    coordinates: [  0.653085734009188,  0.653085734009188,  0.625000000000000 ]
    mass: 15.999400
    reduced_to: 97
  - symbol: O  # 105
    coordinates: [  0.346914265990812,  0.346914265990812,  0.375000000000000 ]
    mass: 15.999400
    reduced_to: 105
  - symbol: O  # 106
    coordinates: [  0.846914265990812,  0.346914265990812,  0.375000000000000 ]
    mass: 15.999400
    reduced_to: 105
  - symbol: O  # 107
    coordinates: [  0.346914265990812,  0.846914265990812,  0.375000000000000 ]
    mass: 15.999400
    reduced_to: 105
  - symbol: O  # 108
    coordinates: [  0.846914265990812,  0.846914265990812,  0.375000000000000 ]
    mass: 15.999400
    reduced_to: 105
  - symbol: O  # 109
    coordinates: [  0.346914265990812,  0.346914265990812,  0.875000000000000 ]
    mass: 15.999400
    reduced_to: 105
  - symbol: O  # 110
    coordinates: [  0.846914265990812,  0.346914265990812,  0.875000000000000 ]
    mass: 15.999400
    reduced_to: 105
  - symbol: O  # 111
    coordinates: [  0.346914265990812,  0.846914265990812,  0.875000000000000 ]
    mass: 15.999400
    reduced_to: 105
  - symbol: O  # 112
    coordinates: [  0.846914265990812,  0.846914265990812,  0.875000000000000 ]
    mass: 15.999400
    reduced_to: 105
  - symbol: O  # 113
    coordinates: [  0.346914265990812,  0.000000000000000,  0.125000000000000 ]
    mass: 15.999400
    reduced_to: 113
  - symbol: O  # 114
    coordinates: [  0.846914265990812,  0.000000000000000,  0.125000000000000 ]
    mass: 15.999400
    reduced_to: 113
  - symbol: O  # 115
    coordinates: [  0.346914265990812,  0.500000000000000,  0.125000000000000 ]
    mass: 15.999400
    reduced_to: 113
  - symbol: O  # 116
    coordinates: [  0.846914265990812,  0.500000000000000,  0.125000000000000 ]
    mass: 15.999400
    reduced_to: 113
  - symbol: O  # 117
    coordinates: [  0.346914265990812,  0.000000000000000,  0.625000000000000 ]
    mass: 15.999400
    reduced_to: 113
  - symbol: O  # 118
    coordinates: [  0.846914265990812,  0.000000000000000,  0.625000000000000 ]
    mass: 15.999400
    reduced_to: 113
  - symbol: O  # 119
    coordinates: [  0.346914265990812,  0.500000000000000,  0.625000000000000 ]
    mass: 15.999400
    reduced_to: 113
  - symbol: O  # 120
    coordinates: [  0.846914265990812,  0.500000000000000,  0.625000000000000 ]
    mass: 15.999400
    reduced_to: 113
  - symbol: O  # 121
    coordinates: [  0.153085734009188,  0.000000000000000,  0.375000000000000 ]
    mass: 15.999400
    reduced_to: 121
  - symbol: O  # 122
    coordinates: [  0.653085734009188,  0.000000000000000,  0.375000000000000 ]
    mass: 15.999400
    reduced_to: 121
  - symbol: O  # 123
    coordinates: [  0.153085734009188,  0.500000000000000,  0.375000000000000 ]
    mass: 15.999400
    reduced_to: 121
  - symbol: O  # 124
    coordinates: [  0.653085734009188,  0.500000000000000,  0.375000000000000 ]
    mass: 15.999400
    reduced_to: 121
  - symbol: O  # 125
    coordinates: [  0.153085734009188,  0.000000000000000,  0.875000000000000 ]
    mass: 15.999400
    reduced_to: 121
  - symbol: O  # 126
    coordinates: [  0.653085734009188,  0.000000000000000,  0.875000000000000 ]
    mass: 15.999400
    reduced_to: 121
  - symbol: O  # 127
    coordinates: [  0.153085734009188,  0.500000000000000,  0.875000000000000 ]
    mass: 15.999400
    reduced_to: 121
  - symbol: O  # 128
    coordinates: [  0.653085734009188,  0.500000000000000,  0.875000000000000 ]
    mass: 15.999400
    reduced_to: 121
  - symbol: O  # 129
    coordinates: [  0.000000000000000,  0.346914265990812,  0.125000000000000 ]
    mass: 15.999400
    reduced_to: 129
  - symbol: O  # 130
    coordinates: [  0.500000000000000,  0.346914265990812,  0.125000000000000 ]
    mass: 15.999400
    reduced_to: 129
  - symbol: O  # 131
    coordinates: [  0.000000000000000,  0.846914265990812,  0.125000000000000 ]
    mass: 15.999400
    reduced_to: 129
  - symbol: O  # 132
    coordinates: [  0.500000000000000,  0.846914265990812,  0.125000000000000 ]
    mass: 15.999400
    reduced_to: 129
  - symbol: O  # 133
    coordinates: [  0.000000000000000,  0.346914265990812,  0.625000000000000 ]
    mass: 15.999400
    reduced_to: 129
  - symbol: O  # 134
    coordinates: [  0.500000000000000,  0.346914265990812,  0.625000000000000 ]
    mass: 15.999400
    reduced_to: 129
  - symbol: O  # 135
    coordinates: [  0.000000000000000,  0.846914265990812,  0.625000000000000 ]
    mass: 15.999400
    reduced_to: 129
  - symbol: O  # 136
    coordinates: [  0.500000000000000,  0.846914265990812,  0.625000000000000 ]
    mass: 15.999400
    reduced_to: 129
  - symbol: O  # 137
    coordinates: [  0.000000000000000,  0.153085734009188,  0.375000000000000 ]
    mass: 15.999400
    reduced_to: 137
  - symbol: O  # 138
    coordinates: [  0.500000000000000,  0.153085734009188,  0.375000000000000 ]
    mass: 15.999400
    reduced_to: 137
  - symbol: O  # 139
    coordinates: [  0.000000000000000,  0.653085734009188,  0.375000000000000 ]
    mass: 15.999400
    reduced_to: 137
  - symbol: O  # 140
    coordinates: [  0.500000000000000,  0.653085734009188,  0.375000000000000 ]
    mass: 15.999400
    reduced_to: 137
  - symbol: O  # 141
    coordinates: [  0.000000000000000,  0.153085734009188,  0.875000000000000 ]
    mass: 15.999400
    reduced_to: 137
  - symbol: O  # 142
    coordinates: [  0.500000000000000,  0.153085734009188,  0.875000000000000 ]
    mass: 15.999400
    reduced_to: 137
  - symbol: O  # 143
    coordinates: [  0.000000000000000,  0.653085734009188,  0.875000000000000 ]
    mass: 15.999400
    reduced_to: 137
  - symbol: O  # 144
    coordinates: [  0.500000000000000,  0.653085734009188,  0.875000000000000 ]
    mass: 15.999400
    reduced_to: 137
  - symbol: O  # 145
    coordinates: [  0.486419077009188,  0.319752390509187,  0.291666656499999 ]
    mass: 15.999400
    reduced_to: 97
  - symbol: O  # 146
    coordinates: [  0.986419077009188,  0.319752390509187,  0.291666656499999 ]
    mass: 15.999400
    reduced_to: 97
  - symbol: O  # 147
    coordinates: [  0.486419077009188,  0.819752390509187,  0.291666656499999 ]
    mass: 15.999400
    reduced_to: 97
  - symbol: O  # 148
    coordinates: [  0.986419077009188,  0.819752390509187,  0.291666656499999 ]
    mass: 15.999400
    reduced_to: 97
  - symbol: O  # 149
    coordinates: [  0.486419077009188,  0.319752390509187,  0.791666656499999 ]
    mass: 15.999400
    reduced_to: 97
  - symbol: O  # 150
    coordinates: [  0.986419077009188,  0.319752390509187,  0.791666656499999 ]
    mass: 15.999400
    reduced_to: 97
  - symbol: O  # 151
    coordinates: [  0.486419077009188,  0.819752390509187,  0.791666656499999 ]
    mass: 15.999400
    reduced_to: 97
  - symbol: O  # 152
    coordinates: [  0.986419077009188,  0.819752390509187,  0.791666656499999 ]
    mass: 15.999400
    reduced_to: 97
  - symbol: O  # 153
    coordinates: [  0.180247594490812,  0.013580932990813,  0.041666668000001 ]
    mass: 15.999400
    reduced_to: 105
  - symbol: O  # 154
    coordinates: [  0.680247594490812,  0.013580932990813,  0.041666668000001 ]
    mass: 15.999400
    reduced_to: 105
  - symbol: O  # 155
    coordinates: [  0.180247594490812,  0.513580932990813,  0.041666668000001 ]
    mass: 15.999400
    reduced_to: 105
  - symbol: O  # 156
    coordinates: [  0.680247594490812,  0.513580932990813,  0.041666668000001 ]
    mass: 15.999400
    reduced_to: 105
  - symbol: O  # 157
    coordinates: [  0.180247594490812,  0.013580932990813,  0.541666668000001 ]
    mass: 15.999400
    reduced_to: 105
  - symbol: O  # 158
    coordinates: [  0.680247594490812,  0.013580932990813,  0.541666668000001 ]
    mass: 15.999400
    reduced_to: 105
  - symbol: O  # 159
    coordinates: [  0.180247594490812,  0.513580932990813,  0.541666668000001 ]
    mass: 15.999400
    reduced_to: 105
  - symbol: O  # 160
    coordinates: [  0.680247594490812,  0.513580932990813,  0.541666668000001 ]
    mass: 15.999400
    reduced_to: 105
  - symbol: O  # 161
    coordinates: [  0.180247594490812,  0.166666671500000,  0.291666656499999 ]
    mass: 15.999400
    reduced_to: 113
  - symbol: O  # 162
    coordinates: [  0.680247594490812,  0.166666671500000,  0.291666656499999 ]
    mass: 15.999400
    reduced_to: 113
  - symbol: O  # 163
    coordinates: [  0.180247594490812,  0.666666671500000,  0.291666656499999 ]
    mass: 15.999400
    reduced_to: 113
  - symbol: O  # 164