# epsilon and Z* of atoms 1 9
  20.92827618    0.00000000    0.00000000    0.00000000   20.92827618    0.00000000    0.00000000    0.00000000   20.92827618 
   2.62709331   -0.10020073   -0.00890882    0.00890882    2.62709331   -0.10020073    0.10020073    0.00890882    2.62709331 
  -5.25418661    0.46436499   -0.00716497    0.00716497   -5.25418661    0.46436499   -0.46436499    0.00716497   -5.25418661 
