natom:   96
displacements:
- atom:    1
  displacement:
    [   0.0100000000000000,  0.0000000000000000,  0.0000000000000000 ]
- atom:    1
  displacement:
    [  -0.0100000000000000,  0.0000000000000000,  0.0000000000000000 ]
- atom:   65
  displacement:
    [   0.0100000000000000,  0.0000000000000000,  0.0000000000000000 ]
lattice:
- [    10.637149440000000,     0.000000000000000,     0.000000000000000 ] # a
- [     0.000000000000000,    10.637149440000000,     0.000000000000000 ] # b
- [     0.000000000000000,     0.000000000000000,    10.637149440000000 ] # c
points:
- symbol: S  # 1
  coordinates: [  0.440883990000000,  0.309116010000000,  0.190883990000000 ]
  mass: 32.065000
- symbol: S  # 2
  coordinates: [  0.940883990000000,  0.309116010000000,  0.190883990000000 ]
  mass: 32.065000
- symbol: S  # 3
  coordinates: [  0.440883990000000,  0.809116010000000,  0.190883990000000 ]
  mass: 32.065000
- symbol: S  # 4
  coordinates: [  0.940883990000000,  0.809116010000000,  0.190883990000000 ]
  mass: 32.065000
- symbol: S  # 5
  coordinates: [  0.440883990000000,  0.309116010000000,  0.690883990000000 ]
  mass: 32.065000
- symbol: S  # 6
  coordinates: [  0.940883990000000,  0.309116010000000,  0.690883990000000 ]
  mass: 32.065000
- symbol: S  # 7
  coordinates: [  0.440883990000000,  0.809116010000000,  0.690883990000000 ]
  mass: 32.065000
- symbol: S  # 8
  coordinates: [  0.940883990000000,  0.809116010000000,  0.690883990000000 ]
  mass: 32.065000
- symbol: S  # 9
  coordinates: [  0.309116010000000,  0.190883990000000,  0.440883990000000 ]
  mass: 32.065000
- symbol: S  # 10
  coordinates: [  0.809116010000000,  0.190883990000000,  0.440883990000000 ]
  mass: 32.065000
- symbol: S  # 11
  coordinates: [  0.309116010000000,  0.690883990000000,  0.440883990000000 ]
  mass: 32.065000
- symbol: S  # 12
  coordinates: [  0.809116010000000,  0.690883990000000,  0.440883990000000 ]
  mass: 32.065000
- symbol: S  # 13
  coordinates: [  0.309116010000000,  0.190883990000000,  0.940883990000000 ]
  mass: 32.065000
- symbol: S  # 14
  coordinates: [  0.809116010000000,  0.190883990000000,  0.940883990000000 ]
  mass: 32.065000
- symbol: S  # 15
  coordinates: [  0.309116010000000,  0.690883990000000,  0.940883990000000 ]
  mass: 32.065000
- symbol: S  # 16
  coordinates: [  0.809116010000000,  0.690883990000000,  0.940883990000000 ]
  mass: 32.065000
- symbol: S  # 17
  coordinates: [  0.190883990000000,  0.440883990000000,  0.309116010000000 ]
  mass: 32.065000
- symbol: S  # 18
  coordinates: [  0.690883990000000,  0.440883990000000,  0.309116010000000 ]
  mass: 32.065000
- symbol: S  # 19
  coordinates: [  0.190883990000000,  0.940883990000000,  0.309116010000000 ]
  mass: 32.065000
- symbol: S  # 20
  coordinates: [  0.690883990000000,  0.940883990000000,  0.309116010000000 ]
  mass: 32.065000
- symbol: S  # 21
  coordinates: [  0.190883990000000,  0.440883990000000,  0.809116010000000 ]
  mass: 32.065000
- symbol: S  # 22
  coordinates: [  0.690883990000000,  0.440883990000000,  0.809116010000000 ]
  mass: 32.065000
- symbol: S  # 23
  coordinates: [  0.190883990000000,  0.940883990000000,  0.809116010000000 ]
  mass: 32.065000
- symbol: S  # 24
  coordinates: [  0.690883990000000,  0.940883990000000,  0.809116010000000 ]
  mass: 32.065000
- symbol: S  # 25
  coordinates: [  0.059116010000000,  0.059116010000000,  0.059116010000000 ]
  mass: 32.065000
- symbol: S  # 26
  coordinates: [  0.559116010000000,  0.059116010000000,  0.059116010000000 ]
  mass: 32.065000
- symbol: S  # 27
  coordinates: [  0.059116010000000,  0.559116010000000,  0.059116010000000 ]
  mass: 32.065000
- symbol: S  # 28
  coordinates: [  0.559116010000000,  0.559116010000000,  0.059116010000000 ]
  mass: 32.065000
- symbol: S  # 29
  coordinates: [  0.059116010000000,  0.059116010000000,  0.559116010000000 ]
  mass: 32.065000
- symbol: S  # 30
  coordinates: [  0.559116010000000,  0.059116010000000,  0.559116010000000 ]
  mass: 32.065000
- symbol: S  # 31
  coordinates: [  0.059116010000000,  0.559116010000000,  0.559116010000000 ]
  mass: 32.065000
- symbol: S  # 32
  coordinates: [  0.559116010000000,  0.559116010000000,  0.559116010000000 ]
  mass: 32.065000
- symbol: S  # 33
  coordinates: [  0.440883990000000,  0.440883990000000,  0.440883990000000 ]
  mass: 32.065000
- symbol: S  # 34
  coordinates: [  0.940883990000000,  0.440883990000000,  0.440883990000000 ]
  mass: 32.065000
- symbol: S  # 35
  coordinates: [  0.440883990000000,  0.940883990000000,  0.440883990000000 ]
  mass: 32.065000
- symbol: S  # 36
  coordinates: [  0.940883990000000,  0.940883990000000,  0.440883990000000 ]
  mass: 32.065000
- symbol: S  # 37
  coordinates: [  0.440883990000000,  0.440883990000000,  0.940883990000000 ]
  mass: 32.065000
- symbol: S  # 38
  coordinates: [  0.940883990000000,  0.440883990000000,  0.940883990000000 ]
  mass: 32.065000
- symbol: S  # 39
  coordinates: [  0.440883990000000,  0.940883990000000,  0.940883990000000 ]
  mass: 32.065000
- symbol: S  # 40
  coordinates: [  0.940883990000000,  0.940883990000000,  0.940883990000000 ]
  mass: 32.065000
- symbol: S  # 41
  coordinates: [  0.309116010000000,  0.059116010000000,  0.190883990000000 ]
  mass: 32.065000
- symbol: S  # 42
  coordinates: [  0.809116010000000,  0.059116010000000,  0.190883990000000 ]
  mass: 32.065000
- symbol: S  # 43
  coordinates: [  0.309116010000000,  0.559116010000000,  0.190883990000000 ]
  mass: 32.065000
- symbol: S  # 44
  coordinates: [  0.809116010000000,  0.559116010000000,  0.190883990000000 ]
  mass: 32.065000
- symbol: S  # 45
  coordinates: [  0.309116010000000,  0.059116010000000,  0.690883990000000 ]
  mass: 32.065000
- symbol: S  # 46
  coordinates: [  0.809116010000000,  0.059116010000000,  0.690883990000000 ]
  mass: 32.065000
- symbol: S  # 47
  coordinates: [  0.309116010000000,  0.559116010000000,  0.690883990000000 ]
  mass: 32.065000
- symbol: S  # 48
  coordinates: [  0.809116010000000,  0.559116010000000,  0.690883990000000 ]
  mass: 32.065000
- symbol: S  # 49
  coordinates: [  0.190883990000000,  0.309116010000000,  0.059116010000000 ]
  mass: 32.065000
- symbol: S  # 50
  coordinates: [  0.690883990000000,  0.309116010000000,  0.059116010000000 ]
  mass: 32.065000
- symbol: S  # 51
  coordinates: [  0.190883990000000,  0.809116010000000,  0.059116010000000 ]
  mass: 32.065000
- symbol: S  # 52
  coordinates: [  0.690883990000000,  0.809116010000000,  0.059116010000000 ]
  mass: 32.065000
- symbol: S  # 53
  coordinates: [  0.190883990000000,  0.309116010000000,  0.559116010000000 ]
  mass: 32.065000
- symbol: S  # 54
  coordinates: [  0.690883990000000,  0.309116010000000,  0.559116010000000 ]
  mass: 32.065000
- symbol: S  # 55
  coordinates: [  0.190883990000000,  0.809116010000000,  0.559116010000000 ]
  mass: 32.065000
- symbol: S  # 56
  coordinates: [  0.690883990000000,  0.809116010000000,  0.559116010000000 ]
  mass: 32.065000
- symbol: S  # 57
  coordinates: [  0.059116010000000,  0.190883990000000,  0.309116010000000 ]
  mass: 32.065000
- symbol: S  # 58
  coordinates: [  0.559116010000000,  0.190883990000000,  0.309116010000000 ]
  mass: 32.065000
- symbol: S  # 59
  coordinates: [  0.059116010000000,  0.690883990000000,  0.309116010000000 ]
  mass: 32.065000
- symbol: S  # 60
  coordinates: [  0.559116010000000,  0.690883990000000,  0.309116010000000 ]
  mass: 32.065000
- symbol: S  # 61
  coordinates: [  0.059116010000000,  0.190883990000000,  0.809116010000000 ]
  mass: 32.065000
- symbol: S  # 62
  coordinates: [  0.559116010000000,  0.190883990000000,  0.809116010000000 ]
  mass: 32.065000
- symbol: S  # 63
  coordinates: [  0.059116010000000,  0.690883990000000,  0.809116010000000 ]
  mass: 32.065000
- symbol: S  # 64
  coordinates: [  0.559116010000000,  0.690883990000000,  0.809116010000000 ]
  mass: 32.065000
- symbol: Fe # 65
  coordinates: [  0.250000000000000,  0.000000000000000,  0.000000000000000 ]
  mass: 55.845000
- symbol: Fe # 66
  coordinates: [  0.750000000000000,  0.000000000000000,  0.000000000000000 ]
  mass: 55.845000
- symbol: Fe # 67
  coordinates: [  0.250000000000000,  0.500000000000000,  0.000000000000000 ]
  mass: 55.845000
- symbol: Fe # 68
  coordinates: [  0.750000000000000,  0.500000000000000,  0.000000000000000 ]
  mass: 55.845000
- symbol: Fe # 69
  coordinates: [  0.250000000000000,  0.000000000000000,  0.500000000000000 ]
  mass: 55.845000
- symbol: Fe # 70
  coordinates: [  0.750000000000000,  0.000000000000000,  0.500000000000000 ]
  mass: 55.845000
- symbol: Fe # 71
  coordinates: [  0.250000000000000,  0.500000000000000,  0.500000000000000 ]
  mass: 55.845000
- symbol: Fe # 72
  coordinates: [  0.750000000000000,  0.500000000000000,  0.500000000000000 ]
  mass: 55.845000
- symbol: Fe # 73
  coordinates: [  0.000000000000000,  0.000000000000000,  0.250000000000000 ]
  mass: 55.845000
- symbol: Fe # 74
  coordinates: [  0.500000000000000,  0.000000000000000,  0.250000000000000 ]
  mass: 55.845000
- symbol: Fe # 75
  coordinates: [  0.000000000000000,  0.500000000000000,  0.250000000000000 ]
  mass: 55.845000
- symbol: Fe # 76
  coordinates: [  0.500000000000000,  0.500000000000000,  0.250000000000000 ]
  mass: 55.845000
- symbol: Fe # 77
  coordinates: [  0.000000000000000,  0.000000000000000,  0.750000000000000 ]
  mass: 55.845000
- symbol: Fe # 78
  coordinates: [  0.500000000000000,  0.000000000000000,  0.750000000000000 ]
  mass: 55.845000
- symbol: Fe # 79
  coordinates: [  0.000000000000000,  0.500000000000000,  0.750000000000000 ]
  mass: 55.845000
- symbol: Fe # 80
  coordinates: [  0.500000000000000,  0.500000000000000,  0.750000000000000 ]
  mass: 55.845000
- symbol: Fe # 81
  coordinates: [  0.000000000000000,  0.250000000000000,  0.000000000000000 ]
  mass: 55.845000
- symbol: Fe # 82
  coordinates: [  0.500000000000000,  0.250000000000000,  0.000000000000000 ]
  mass: 55.845000
- symbol: Fe # 83
  coordinates: [  0.000000000000000,  0.750000000000000,  0.000000000000000 ]
  mass: 55.845000
- symbol: Fe # 84
  coordinates: [  0.500000000000000,  0.750000000000000,  0.000000000000000 ]
  mass: 55.845000
- symbol: Fe # 85
  coordinates: [  0.000000000000000,  0.250000000000000,  0.500000000000000 ]
  mass: 55.845000
- symbol: Fe # 86
  coordinates: [  0.500000000000000,  0.250000000000000,  0.500000000000000 ]
  mass: 55.845000
- symbol: Fe # 87
  coordinates: [  0.000000000000000,  0.750000000000000,  0.500000000000000 ]
  mass: 55.845000
- symbol: Fe # 88
  coordinates: [  0.500000000000000,  0.750000000000000,  0.500000000000000 ]
  mass: 55.845000
- symbol: Fe # 89
  coordinates: [  0.250000000000000,  0.250000000000000,  0.250000000000000 ]
  mass: 55.845000
- symbol: Fe # 90
  coordinates: [  0.750000000000000,  0.250000000000000,  0.250000000000000 ]
  mass: 55.845000
- symbol: Fe # 91
  coordinates: [  0.250000000000000,  0.750000000000000,  0.250000000000000 ]
  mass: 55.845000
- symbol: Fe # 92
  coordinates: [  0.750000000000000,  0.750000000000000,  0.250000000000000 ]
  mass: 55.845000
- symbol: Fe # 93
  coordinates: [  0.250000000000000,  0.250000000000000,  0.750000000000000 ]
  mass: 55.845000
- symbol: Fe # 94
  coordinates: [  0.750000000000000,  0.250000000000000,  0.750000000000000 ]
  mass: 55.845000
- symbol: Fe # 95
  coordinates: [  0.250000000000000,  0.750000000000000,  0.750000000000000 ]
  mass: 55.845000
- symbol: Fe # 96
  coordinates: [  0.750000000000000,  0.750000000000000,  0.750000000000000 ]
  mass: 55.845000