# epsilon and Z* of atoms 1 5
  26.30146100    0.00000000    0.00000000    0.00000000   26.30146100    0.00000000    0.00000000    0.00000000   26.30146100 
   5.68832500    0.00000000    0.00000000    0.00000000    5.68832500    0.00000000    0.00000000    0.00000000    5.68832500 
  -5.68832500    0.00000000    0.00000000    0.00000000   -5.68832500    0.00000000    0.00000000    0.00000000   -5.68832500 
