# epsilon and Z* of atoms 1 5 9
   3.80887000   -0.00000200    0.00000000    0.00000200    3.80887000    0.00000000    0.00000000    0.00000000    3.89589500 
   2.93536083    0.16520833    0.00000000   -0.16520833    2.93536083    0.00000000    0.00000000    0.00000000    2.64992333 
   4.49039583   -0.24794667    0.00000000    0.24794667    4.49039583    0.00000000    0.00000000    0.00000000    5.02088333 
  -1.66807417   -0.63619917    0.65744000   -0.67756833   -2.04480417    0.61418000    0.51272500    0.75022500   -1.91770167 
