phonopy:
  version: 1.13.2
  configuration:

supercell_matrix:
- [   2,   0,   0 ]
- [   0,   2,   0 ]
- [   0,   0,   1 ]

space_group:
  type: "I4_1/a"
  number: 88
  Hall_symbol: "I 4bw -1bw"

primitive_cell:
  lattice:
  - [     5.320298954331473,     0.000000002834517,     0.000000000000000 ] # a
  - [    -0.000000002834517,     5.320298954331473,     0.000000000000000 ] # b
  - [     0.000000000000000,     0.000000000000000,    11.443839487533365 ] # c
  points:
  - symbol: Ca # 1
    coordinates: [  0.000000000000000,  0.000000000000000,  0.000000000000000 ]
    mass: 40.078000
  - symbol: Ca # 2
    coordinates: [  0.500000000000000,  0.500000000000000,  0.500000000000000 ]
    mass: 40.078000
  - symbol: Ca # 3
    coordinates: [  0.000000000000000,  0.500000000000000,  0.250000000000000 ]
    mass: 40.078000
  - symbol: Ca # 4
    coordinates: [  0.500000000000000,  0.000000000000000,  0.750000000000000 ]
    mass: 40.078000
  - symbol: W  # 5
    coordinates: [  0.000000000000000,  0.000000000000000,  0.500000000000000 ]
    mass: 183.840000
  - symbol: W  # 6
    coordinates: [  0.500000000000000,  0.500000000000000,  0.000000000000000 ]
    mass: 183.840000
  - symbol: W  # 7
    coordinates: [  0.000000000000000,  0.500000000000000,  0.750000000000000 ]
    mass: 183.840000
  - symbol: W  # 8
    coordinates: [  0.500000000000000,  0.000000000000000,  0.250000000000000 ]
    mass: 183.840000
  - symbol: O  # 9
    coordinates: [  0.157186468767815,  0.242106951539488,  0.413152813239335 ]
    mass: 15.999400
  - symbol: O  # 10
    coordinates: [  0.342813516232180,  0.257893048460512,  0.913152813239335 ]
    mass: 15.999400
  - symbol: O  # 11
    coordinates: [  0.757893077460510,  0.657186483767819,  0.663152813239335 ]
    mass: 15.999400
  - symbol: O  # 12
    coordinates: [  0.742106922539490,  0.842813516232181,  0.163152813239335 ]
    mass: 15.999400
  - symbol: O  # 13
    coordinates: [  0.842813516232181,  0.257893048460512,  0.836847186760665 ]
    mass: 15.999400
  - symbol: O  # 14
    coordinates: [  0.657186483767819,  0.242106951539488,  0.336847186760665 ]
    mass: 15.999400
  - symbol: O  # 15
    coordinates: [  0.242106951539488,  0.842813516232181,  0.586847186760665 ]
    mass: 15.999400
  - symbol: O  # 16
    coordinates: [  0.257893048460512,  0.657186483767819,  0.086847186760665 ]
    mass: 15.999400
  - symbol: O  # 17
    coordinates: [  0.657186483767819,  0.742106922539490,  0.913152813239335 ]
    mass: 15.999400
  - symbol: O  # 18
    coordinates: [  0.842813516232181,  0.757893077460510,  0.413152813239335 ]
    mass: 15.999400
  - symbol: O  # 19
    coordinates: [  0.257893048460512,  0.157186468767815,  0.163152813239335 ]
    mass: 15.999400
  - symbol: O  # 20
    coordinates: [  0.242106951539488,  0.342813516232180,  0.663152813239335 ]
    mass: 15.999400
  - symbol: O  # 21
    coordinates: [  0.342813516232180,  0.757893077460510,  0.336847186760665 ]
    mass: 15.999400
  - symbol: O  # 22
    coordinates: [  0.157186468767815,  0.742106922539490,  0.836847186760665 ]
    mass: 15.999400
  - symbol: O  # 23
    coordinates: [  0.742106922539490,  0.342813516232180,  0.086847186760665 ]
    mass: 15.999400
  - symbol: O  # 24
    coordinates: [  0.757893077460510,  0.157186468767815,  0.586847186760665 ]
    mass: 15.999400
  reciprocal_lattice: # without 2pi
  - [     0.187959362544065,     0.000000000100140,     0.000000000000000 ] # a*
  - [    -0.000000000100140,     0.187959362544065,     0.000000000000000 ] # b*
  - [     0.000000000000000,     0.000000000000000,     0.087383259883134 ] # c*

unit_cell:
  lattice:
  - [     5.320298954331473,     0.000000002834517,     0.000000000000000 ] # a
  - [    -0.000000002834517,     5.320298954331473,     0.000000000000000 ] # b
  - [     0.000000000000000,    -0.000000000000000,    11.443839487533365 ] # c
  points:
  - symbol: Ca # 1
    coordinates: [ -0.000000000000000, -0.000000000000000,  0.000000000000000 ]
    mass: 40.078000
    reduced_to: 1
  - symbol: Ca # 2
    coordinates: [  0.500000000000000,  0.500000000000000,  0.500000000000000 ]
    mass: 40.078000
    reduced_to: 2
  - symbol: Ca # 3
    coordinates: [ -0.000000000000000,  0.500000000000000,  0.250000000000000 ]
    mass: 40.078000
    reduced_to: 3
  - symbol: Ca # 4
    coordinates: [  0.500000000000000, -0.000000000000000,  0.750000000000000 ]
    mass: 40.078000
    reduced_to: 4
  - symbol: W  # 5
    coordinates: [ -0.000000000000000, -0.000000000000000,  0.500000000000000 ]
    mass: 183.840000
    reduced_to: 5
  - symbol: W  # 6
    coordinates: [  0.500000000000000,  0.500000000000000,  0.000000000000000 ]
    mass: 183.840000
    reduced_to: 6
  - symbol: W  # 7
    coordinates: [ -0.000000000000000,  0.500000000000000,  0.750000000000000 ]
    mass: 183.840000
    reduced_to: 7
  - symbol: W  # 8
    coordinates: [  0.500000000000000, -0.000000000000000,  0.250000000000000 ]
    mass: 183.840000
    reduced_to: 8
  - symbol: O  # 9
    coordinates: [  0.157186468767815,  0.242106951539488,  0.413152813239335 ]
    mass: 15.999400
    reduced_to: 9
  - symbol: O  # 10
    coordinates: [  0.342813516232180,  0.257893048460512,  0.913152813239335 ]
    mass: 15.999400
    reduced_to: 10
  - symbol: O  # 11
    coordinates: [  0.757893077460510,  0.657186483767819,  0.663152813239335 ]
    mass: 15.999400
    reduced_to: 11
  - symbol: O  # 12
    coordinates: [  0.742106922539490,  0.842813516232181,  0.163152813239335 ]
    mass: 15.999400
    reduced_to: 12
  - symbol: O  # 13
    coordinates: [  0.842813516232181,  0.257893048460512,  0.836847186760665 ]
    mass: 15.999400
    reduced_to: 13
  - symbol: O  # 14
    coordinates: [  0.657186483767819,  0.242106951539488,  0.336847186760665 ]
    mass: 15.999400
    reduced_to: 14
  - symbol: O  # 15
    coordinates: [  0.242106951539488,  0.842813516232181,  0.586847186760665 ]
    mass: 15.999400
    reduced_to: 15
  - symbol: O  # 16
    coordinates: [  0.257893048460512,  0.657186483767819,  0.086847186760665 ]
    mass: 15.999400
    reduced_to: 16
  - symbol: O  # 17
    coordinates: [  0.657186483767819,  0.742106922539490,  0.913152813239335 ]
    mass: 15.999400
    reduced_to: 17
  - symbol: O  # 18
    coordinates: [  0.842813516232181,  0.757893077460510,  0.413152813239335 ]
    mass: 15.999400
    reduced_to: 18
  - symbol: O  # 19
    coordinates: [  0.257893048460512,  0.157186468767815,  0.163152813239335 ]
    mass: 15.999400
    reduced_to: 19
  - symbol: O  # 20
    coordinates: [  0.242106951539488,  0.342813516232180,  0.663152813239335 ]
    mass: 15.999400
    reduced_to: 20
  - symbol: O  # 21
    coordinates: [  0.342813516232180,  0.757893077460510,  0.336847186760665 ]
    mass: 15.999400
    reduced_to: 21
  - symbol: O  # 22
    coordinates: [  0.157186468767815,  0.742106922539490,  0.836847186760665 ]
    mass: 15.999400
    reduced_to: 22
  - symbol: O  # 23
    coordinates: [  0.742106922539490,  0.342813516232180,  0.086847186760665 ]
    mass: 15.999400
    reduced_to: 23
  - symbol: O  # 24
    coordinates: [  0.757893077460510,  0.157186468767815,  0.586847186760665 ]
    mass: 15.999400
    reduced_to: 24

supercell:
  lattice:
  - [    10.640597908662945,     0.000000005669034,     0.000000000000000 ] # a
  - [    -0.000000005669034,    10.640597908662945,     0.000000000000000 ] # b
  - [     0.000000000000000,     0.000000000000000,    11.443839487533365 ] # c
  points:
  - symbol: Ca # 1
    coordinates: [  0.000000000000000,  0.000000000000000,  0.000000000000000 ]
    mass: 40.078000
    reduced_to: 1
  - symbol: Ca # 2
    coordinates: [  0.500000000000000,  0.000000000000000,  0.000000000000000 ]
    mass: 40.078000
    reduced_to: 1
  - symbol: Ca # 3
    coordinates: [  0.000000000000000,  0.500000000000000,  0.000000000000000 ]
    mass: 40.078000
    reduced_to: 1
  - symbol: Ca # 4
    coordinates: [  0.500000000000000,  0.500000000000000,  0.000000000000000 ]
    mass: 40.078000
    reduced_to: 1
  - symbol: Ca # 5
    coordinates: [  0.250000000000000,  0.250000000000000,  0.500000000000000 ]
    mass: 40.078000
    reduced_to: 5
  - symbol: Ca # 6
    coordinates: [  0.750000000000000,  0.250000000000000,  0.500000000000000 ]
    mass: 40.078000
    reduced_to: 5
  - symbol: Ca # 7
    coordinates: [  0.250000000000000,  0.750000000000000,  0.500000000000000 ]
    mass: 40.078000
    reduced_to: 5
  - symbol: Ca # 8
    coordinates: [  0.750000000000000,  0.750000000000000,  0.500000000000000 ]
    mass: 40.078000
    reduced_to: 5
  - symbol: Ca # 9
    coordinates: [  0.000000000000000,  0.250000000000000,  0.250000000000000 ]
    mass: 40.078000
    reduced_to: 9
  - symbol: Ca # 10
    coordinates: [  0.500000000000000,  0.250000000000000,  0.250000000000000 ]
    mass: 40.078000
    reduced_to: 9
  - symbol: Ca # 11
    coordinates: [  0.000000000000000,  0.750000000000000,  0.250000000000000 ]
    mass: 40.078000
    reduced_to: 9
  - symbol: Ca # 12
    coordinates: [  0.500000000000000,  0.750000000000000,  0.250000000000000 ]
    mass: 40.078000
    reduced_to: 9
  - symbol: Ca # 13
    coordinates: [  0.250000000000000,  0.000000000000000,  0.750000000000000 ]
    mass: 40.078000
    reduced_to: 13
  - symbol: Ca # 14
    coordinates: [  0.750000000000000,  0.000000000000000,  0.750000000000000 ]
    mass: 40.078000
    reduced_to: 13
  - symbol: Ca # 15
    coordinates: [  0.250000000000000,  0.500000000000000,  0.750000000000000 ]
    mass: 40.078000
    reduced_to: 13
  - symbol: Ca # 16
    coordinates: [  0.750000000000000,  0.500000000000000,  0.750000000000000 ]
    mass: 40.078000
    reduced_to: 13
  - symbol: W  # 17
    coordinates: [  0.000000000000000,  0.000000000000000,  0.500000000000000 ]
    mass: 183.840000
    reduced_to: 17
  - symbol: W  # 18
    coordinates: [  0.500000000000000,  0.000000000000000,  0.500000000000000 ]
    mass: 183.840000
    reduced_to: 17
  - symbol: W  # 19
    coordinates: [  0.000000000000000,  0.500000000000000,  0.500000000000000 ]
    mass: 183.840000
    reduced_to: 17
  - symbol: W  # 20
    coordinates: [  0.500000000000000,  0.500000000000000,  0.500000000000000 ]
    mass: 183.840000
    reduced_to: 17
  - symbol: W  # 21
    coordinates: [  0.250000000000000,  0.250000000000000,  0.000000000000000 ]
    mass: 183.840000
    reduced_to: 21
  - symbol: W  # 22
    coordinates: [  0.750000000000000,  0.250000000000000,  0.000000000000000 ]
    mass: 183.840000
    reduced_to: 21
  - symbol: W  # 23
    coordinates: [  0.250000000000000,  0.750000000000000,  0.000000000000000 ]
    mass: 183.840000
    reduced_to: 21
  - symbol: W  # 24
    coordinates: [  0.750000000000000,  0.750000000000000,  0.000000000000000 ]
    mass: 183.840000
    reduced_to: 21
  - symbol: W  # 25
    coordinates: [  0.000000000000000,  0.250000000000000,  0.750000000000000 ]
    mass: 183.840000
    reduced_to: 25
  - symbol: W  # 26
    coordinates: [  0.500000000000000,  0.250000000000000,  0.750000000000000 ]
    mass: 183.840000
    reduced_to: 25
  - symbol: W  # 27
    coordinates: [  0.000000000000000,  0.750000000000000,  0.750000000000000 ]
    mass: 183.840000
    reduced_to: 25
  - symbol: W  # 28
    coordinates: [  0.500000000000000,  0.750000000000000,  0.750000000000000 ]
    mass: 183.840000
    reduced_to: 25
  - symbol: W  # 29
    coordinates: [  0.250000000000000,  0.000000000000000,  0.250000000000000 ]
    mass: 183.840000
    reduced_to: 29
  - symbol: W  # 30
    coordinates: [  0.750000000000000,  0.000000000000000,  0.250000000000000 ]
    mass: 183.840000
    reduced_to: 29
  - symbol: W  # 31
    coordinates: [  0.250000000000000,  0.500000000000000,  0.250000000000000 ]
    mass: 183.840000
    reduced_to: 29
  - symbol: W  # 32
    coordinates: [  0.750000000000000,  0.500000000000000,  0.250000000000000 ]
    mass: 183.840000
    reduced_to: 29
  - symbol: O  # 33
    coordinates: [  0.078593234383907,  0.121053475769744,  0.413152813239335 ]
    mass: 15.999400
    reduced_to: 33
  - symbol: O  # 34
    coordinates: [  0.578593234383907,  0.121053475769744,  0.413152813239335 ]
    mass: 15.999400
    reduced_to: 33
  - symbol: O  # 35
    coordinates: [  0.078593234383907,  0.621053475769744,  0.413152813239335 ]
    mass: 15.999400
    reduced_to: 33
  - symbol: O  # 36
    coordinates: [  0.578593234383907,  0.621053475769744,  0.413152813239335 ]
    mass: 15.999400
    reduced_to: 33
  - symbol: O  # 37
    coordinates: [  0.171406758116090,  0.128946524230256,  0.913152813239335 ]
    mass: 15.999400
    reduced_to: 37
  - symbol: O  # 38
    coordinates: [  0.671406758116090,  0.128946524230256,  0.913152813239335 ]
    mass: 15.999400
    reduced_to: 37
  - symbol: O  # 39
    coordinates: [  0.171406758116090,  0.628946524230256,  0.913152813239335 ]
    mass: 15.999400
    reduced_to: 37
  - symbol: O  # 40
    coordinates: [  0.671406758116090,  0.628946524230256,  0.913152813239335 ]
    mass: 15.999400
    reduced_to: 37
  - symbol: O  # 41
    coordinates: [  0.378946538730255,  0.328593241883910,  0.663152813239335 ]
    mass: 15.999400
    reduced_to: 41
  - symbol: O  # 42
    coordinates: [  0.878946538730255,  0.328593241883910,  0.663152813239335 ]
    mass: 15.999400
    reduced_to: 41
  - symbol: O  # 43
    coordinates: [  0.378946538730255,  0.828593241883910,  0.663152813239335 ]
    mass: 15.999400
    reduced_to: 41
  - symbol: O  # 44
    coordinates: [  0.878946538730255,  0.828593241883910,  0.663152813239335 ]
    mass: 15.999400
    reduced_to: 41
  - symbol: O  # 45
    coordinates: [  0.371053461269745,  0.421406758116090,  0.163152813239335 ]
    mass: 15.999400
    reduced_to: 45
  - symbol: O  # 46
    coordinates: [  0.871053461269745,  0.421406758116090,  0.163152813239335 ]
    mass: 15.999400
    reduced_to: 45
  - symbol: O  # 47
    coordinates: [  0.371053461269745,  0.921406758116090,  0.163152813239335 ]
    mass: 15.999400
    reduced_to: 45
  - symbol: O  # 48
    coordinates: [  0.871053461269745,  0.921406758116090,  0.163152813239335 ]
    mass: 15.999400
    reduced_to: 45
  - symbol: O  # 49
    coordinates: [  0.421406758116090,  0.128946524230256,  0.836847186760665 ]
    mass: 15.999400
    reduced_to: 49
  - symbol: O  # 50
    coordinates: [  0.921406758116090,  0.128946524230256,  0.836847186760665 ]
    mass: 15.999400
    reduced_to: 49
  - symbol: O  # 51
    coordinates: [  0.421406758116090,  0.628946524230256,  0.836847186760665 ]
    mass: 15.999400
    reduced_to: 49
  - symbol: O  # 52
    coordinates: [  0.921406758116090,  0.628946524230256,  0.836847186760665 ]
    mass: 15.999400
    reduced_to: 49
  - symbol: O  # 53
    coordinates: [  0.328593241883910,  0.121053475769744,  0.336847186760665 ]
    mass: 15.999400
    reduced_to: 53
  - symbol: O  # 54
    coordinates: [  0.828593241883910,  0.121053475769744,  0.336847186760665 ]
    mass: 15.999400
    reduced_to: 53
  - symbol: O  # 55
    coordinates: [  0.328593241883910,  0.621053475769744,  0.336847186760665 ]
    mass: 15.999400
    reduced_to: 53
  - symbol: O  # 56
    coordinates: [  0.828593241883910,  0.621053475769744,  0.336847186760665 ]
    mass: 15.999400
    reduced_to: 53
  - symbol: O  # 57
    coordinates: [  0.121053475769744,  0.421406758116090,  0.586847186760665 ]
    mass: 15.999400
    reduced_to: 57
  - symbol: O  # 58
    coordinates: [  0.621053475769744,  0.421406758116090,  0.586847186760665 ]
    mass: 15.999400
    reduced_to: 57
  - symbol: O  # 59
    coordinates: [  0.121053475769744,  0.921406758116090,  0.586847186760665 ]
    mass: 15.999400
    reduced_to: 57
  - symbol: O  # 60
    coordinates: [  0.621053475769744,  0.921406758116090,  0.586847186760665 ]
    mass: 15.999400
    reduced_to: 57
  - symbol: O  # 61
    coordinates: [  0.128946524230256,  0.328593241883910,  0.086847186760665 ]
    mass: 15.999400
    reduced_to: 61
  - symbol: O  # 62
    coordinates: [  0.628946524230256,  0.328593241883910,  0.086847186760665 ]
    mass: 15.999400
    reduced_to: 61
  - symbol: O  # 63
    coordinates: [  0.128946524230256,  0.828593241883910,  0.086847186760665 ]
    mass: 15.999400
    reduced_to: 61
  - symbol: O  # 64
    coordinates: [  0.628946524230256,  0.828593241883910,  0.086847186760665 ]
    mass: 15.999400
    reduced_to: 61
  - symbol: O  # 65
    coordinates: [  0.328593241883910,  0.371053461269745,  0.913152813239335 ]
    mass: 15.999400
    reduced_to: 65
  - symbol: O  # 66
    coordinates: [  0.828593241883910,  0.371053461269745,  0.913152813239335 ]
    mass: 15.999400
    reduced_to: 65
  - symbol: O  # 67
    coordinates: [  0.328593241883910,  0.871053461269745,  0.913152813239335 ]
    mass: 15.999400
    reduced_to: 65
  - symbol: O  # 68
    coordinates: [  0.828593241883910,  0.871053461269745,  0.913152813239335 ]
    mass: 15.999400
    reduced_to: 65
  - symbol: O  # 69
    coordinates: [  0.421406758116090,  0.378946538730255,  0.413152813239335 ]
    mass: 15.999400
    reduced_to: 69
  - symbol: O  # 70
    coordinates: [  0.921406758116090,  0.378946538730255,  0.413152813239335 ]
    mass: 15.999400
    reduced_to: 69
  - symbol: O  # 71
    coordinates: [  0.421406758116090,  0.878946538730255,  0.413152813239335 ]
    mass: 15.999400
    reduced_to: 69
  - symbol: O  # 72
    coordinates: [  0.921406758116090,  0.878946538730255,  0.413152813239335 ]
    mass: 15.999400
    reduced_to: 69
  - symbol: O  # 73
    coordinates: [  0.128946524230256,  0.078593234383907,  0.163152813239335 ]
    mass: 15.999400
    reduced_to: 73
  - symbol: O  # 74
    coordinates: [  0.628946524230256,  0.078593234383907,  0.163152813239335 ]
    mass: 15.999400
    reduced_to: 73
  - symbol: O  # 75
    coordinates: [  0.128946524230256,  0.578593234383907,  0.163152813239335 ]
    mass: 15.999400
    reduced_to: 73
  - symbol: O  # 76
    coordinates: [  0.628946524230256,  0.578593234383907,  0.163152813239335 ]
    mass: 15.999400
    reduced_to: 73
  - symbol: O  # 77
    coordinates: [  0.121053475769744,  0.171406758116090,  0.663152813239335 ]
    mass: 15.999400
    reduced_to: 77
  - symbol: O  # 78
    coordinates: [  0.621053475769744,  0.171406758116090,  0.663152813239335 ]
    mass: 15.999400
    reduced_to: 77
  - symbol: O  # 79
    coordinates: [  0.121053475769744,  0.671406758116090,  0.663152813239335 ]
    mass: 15.999400
    reduced_to: 77
  - symbol: O  # 80
    coordinates: [  0.621053475769744,  0.671406758116090,  0.663152813239335 ]
    mass: 15.999400
    reduced_to: 77
  - symbol: O  # 81
    coordinates: [  0.171406758116090,  0.378946538730255,  0.336847186760665 ]
    mass: 15.999400
    reduced_to: 81
  - symbol: O  # 82
    coordinates: [  0.671406758116090,  0.378946538730255,  0.336847186760665 ]
    mass: 15.999400
    reduced_to: 81
  - symbol: O  # 83
    coordinates: [  0.171406758116090,  0.878946538730255,  0.336847186760665 ]
    mass: 15.999400
    reduced_to: 81
  - symbol: O  # 84
    coordinates: [  0.671406758116090,  0.878946538730255,  0.336847186760665 ]
    mass: 15.999400
    reduced_to: 81
  - symbol: O  # 85
    coordinates: [  0.078593234383907,  0.371053461269745,  0.836847186760665 ]
    mass: 15.999400
    reduced_to: 85
  - symbol: O  # 86
    coordinates: [  0.578593234383907,  0.371053461269745,  0.836847186760665 ]
    mass: 15.999400
    reduced_to: 85
  - symbol: O  # 87
    coordinates: [  0.078593234383907,  0.871053461269745,  0.836847186760665 ]
    mass: 15.999400
    reduced_to: 85
  - symbol: O  # 88
    coordinates: [  0.578593234383907,  0.871053461269745,  0.836847186760665 ]
    mass: 15.999400
    reduced_to: 85
  - symbol: O  # 89
    coordinates: [  0.371053461269745,  0.171406758116090,  0.086847186760665 ]
    mass: 15.999400
    reduced_to: 89
  - symbol: O  # 90
    coordinates: [  0.871053461269745,  0.171406758116090,  0.086847186760665 ]
    mass: 15.999400
    reduced_to: 89
  - symbol: O  # 91
    coordinates: [  0.371053461269745,  0.671406758116090,  0.086847186760665 ]
    mass: 15.999400
    reduced_to: 89
  - symbol: O  # 92
    coordinates: [  0.871053461269745,  0.671406758116090,  0.086847186760665 ]
    mass: 15.999400
    reduced_to: 89
  - symbol: O  # 93
    coordinates: [  0.378946538730255,  0.078593234383907,  0.586847186760665 ]
    mass: 15.999400
    reduced_to: 93
  - symbol: O  # 94
    coordinates: [  0.878946538730255,  0.078593234383907,  0.586847186760665 ]
    mass: 15.999400
    reduced_to: 93
  - symbol: O  # 95
    coordinates: [  0.378946538730255,  0.578593234383907,  0.586847186760665 ]
    mass: 15.999400
    reduced_to: 93
  - symbol: O  # 96
    coordinates: [  0.878946538730255,  0.578593234383907,  0.586847186760665 ]
    mass: 15.999400
    reduced_to: 93
